 Entering Gaussian System, Link 0=g16
 Initial command:
 /opt/g16/l1.exe "/tmp/Gau-250190.inp" -scrdir="/tmp/"
 Entering Link 1 = /opt/g16/l1.exe PID=    250191.
  
 Copyright (c) 1988-2019, Gaussian, Inc.  All Rights Reserved.
  
 This is part of the Gaussian(R) 16 program.  It is based on
 the Gaussian(R) 09 system (copyright 2009, Gaussian, Inc.),
 the Gaussian(R) 03 system (copyright 2003, Gaussian, Inc.),
 the Gaussian(R) 98 system (copyright 1998, Gaussian, Inc.),
 the Gaussian(R) 94 system (copyright 1995, Gaussian, Inc.),
 the Gaussian 92(TM) system (copyright 1992, Gaussian, Inc.),
 the Gaussian 90(TM) system (copyright 1990, Gaussian, Inc.),
 the Gaussian 88(TM) system (copyright 1988, Gaussian, Inc.),
 the Gaussian 86(TM) system (copyright 1986, Carnegie Mellon
 University), and the Gaussian 82(TM) system (copyright 1983,
 Carnegie Mellon University). Gaussian is a federally registered
 trademark of Gaussian, Inc.
  
 This software contains proprietary and confidential information,
 including trade secrets, belonging to Gaussian, Inc.
  
 This software is provided under written license and may be
 used, copied, transmitted, or stored only in accord with that
 written license.
  
 The following legend is applicable only to US Government
 contracts under FAR:
  
                    RESTRICTED RIGHTS LEGEND
  
 Use, reproduction and disclosure by the US Government is
 subject to restrictions as set forth in subparagraphs (a)
 and (c) of the Commercial Computer Software - Restricted
 Rights clause in FAR 52.227-19.
  
 Gaussian, Inc.
 340 Quinnipiac St., Bldg. 40, Wallingford CT 06492
  
  
 ---------------------------------------------------------------
 Warning -- This program may not be used in any manner that
 competes with the business of Gaussian, Inc. or will provide
 assistance to any competitor of Gaussian, Inc.  The licensee
 of this program is prohibited from giving any competitor of
 Gaussian, Inc. access to this program.  By using this program,
 the user acknowledges that Gaussian, Inc. is engaged in the
 business of creating and licensing software in the field of
 computational chemistry and represents and warrants to the
 licensee that it is not a competitor of Gaussian, Inc. and that
 it will not use this program in any manner prohibited above.
 ---------------------------------------------------------------
  

 Cite this work as:
 Gaussian 16, Revision C.01,
 M. J. Frisch, G. W. Trucks, H. B. Schlegel, G. E. Scuseria, 
 M. A. Robb, J. R. Cheeseman, G. Scalmani, V. Barone, 
 G. A. Petersson, H. Nakatsuji, X. Li, M. Caricato, A. V. Marenich, 
 J. Bloino, B. G. Janesko, R. Gomperts, B. Mennucci, H. P. Hratchian, 
 J. V. Ortiz, A. F. Izmaylov, J. L. Sonnenberg, D. Williams-Young, 
 F. Ding, F. Lipparini, F. Egidi, J. Goings, B. Peng, A. Petrone, 
 T. Henderson, D. Ranasinghe, V. G. Zakrzewski, J. Gao, N. Rega, 
 G. Zheng, W. Liang, M. Hada, M. Ehara, K. Toyota, R. Fukuda, 
 J. Hasegawa, M. Ishida, T. Nakajima, Y. Honda, O. Kitao, H. Nakai, 
 T. Vreven, K. Throssell, J. A. Montgomery, Jr., J. E. Peralta, 
 F. Ogliaro, M. J. Bearpark, J. J. Heyd, E. N. Brothers, K. N. Kudin, 
 V. N. Staroverov, T. A. Keith, R. Kobayashi, J. Normand, 
 K. Raghavachari, A. P. Rendell, J. C. Burant, S. S. Iyengar, 
 J. Tomasi, M. Cossi, J. M. Millam, M. Klene, C. Adamo, R. Cammi, 
 J. W. Ochterski, R. L. Martin, K. Morokuma, O. Farkas, 
 J. B. Foresman, and D. J. Fox, Gaussian, Inc., Wallingford CT, 2019.
 
 ******************************************
 Gaussian 16:  ES64L-G16RevC.01  3-Jul-2019
                31-Jul-2025 
 ******************************************
 %nprocshared=32
 Will use up to   32 processors via shared memory.
 %mem=128000MB
 %chk=FTOVXSOBNPWTSH-UHFFFAOYSA-N-1.chk
 ---------------------------------
 #T CCSD(T)/cc-pVDZ symm=veryloose
 ---------------------------------
 ----------------------------------
 c1ccc2c(c1)-c1cccc3c1c-2cc1ccccc13
 ----------------------------------
 Symbolic Z-matrix:
 Charge =  0 Multiplicity = 1
 C                     4.6706    0.61906   0. 
 C                     4.46925  -0.76769   0. 
 C                     3.17346  -1.30264   0. 
 C                     2.08389  -0.43371   0. 
 C                     2.28907   0.98093   0. 
 C                     3.58152   1.50215   0. 
 C                     0.96779   1.63941   0. 
 C                     0.53073   2.95546   0. 
 C                    -0.86451   3.20067   0. 
 C                    -1.80231   2.17041   0. 
 C                    -1.3826    0.81433   0. 
 C                     0.        0.60413   0. 
 C                     0.63111  -0.68513   0. 
 C                    -0.15667  -1.8025    0. 
 C                    -1.59393  -1.66723   0. 
 C                    -2.412    -2.82363   0. 
 C                    -3.79347  -2.73005   0. 
 C                    -4.40884  -1.46298   0. 
 C                    -3.63444  -0.3123    0. 
 C                    -2.22385  -0.37427   0. 
 H                     5.68956   1.01747   0. 
 H                     5.33232  -1.43999   0. 
 H                     3.02311  -2.38627   0. 
 H                     3.74748   2.58344   0. 
 H                     1.23258   3.79435   0. 
 H                    -1.21771   4.23627   0. 
 H                    -2.86534   2.42269   0. 
 H                     0.26991  -2.81024   0. 
 H                    -1.92808  -3.80533   0. 
 H                    -4.4055   -3.63668   0. 
 H                    -5.49998  -1.38502   0. 
 H                    -4.12725   0.66271   0. 
 
                    Distance matrix (angstroms):
                    1          2          3          4          5
     1  C    0.000000
     2  C    1.401290   0.000000
     3  C    2.436053   1.401871   0.000000
     4  C    2.792741   2.408630   1.393634   0.000000
     5  C    2.408872   2.794796   2.448849   1.429441   0.000000
     6  C    1.402123   2.437259   2.834316   2.447536   1.393592
     7  C    3.840824   4.249040   3.677041   2.354459   1.476266
     8  C    4.753671   5.419766   5.011536   3.728107   2.643963
     9  C    6.107556   6.648078   6.048558   4.679933   3.856464
    10  C    6.656223   6.925669   6.067978   4.678028   4.260778
    11  C    6.056356   6.061928   5.023869   3.684311   3.675450
    12  C    4.670628   4.675051   3.702247   2.328024   2.319874
    13  C    4.244807   3.839026   2.616267   1.474372   2.350443
    14  C    5.400604   4.740253   3.367440   2.625587   3.705285
    15  C    6.668689   6.129540   4.781306   3.879161   4.700041
    16  C    7.874984   7.181817   5.788850   5.091636   6.047707
    17  C    9.102581   8.492545   7.111649   6.310031   7.125210
    18  C    9.315102   8.905272   7.583993   6.573804   7.129843
    19  C    8.357101   8.116473   6.879553   5.719615   6.063034
    20  C    6.965641   6.704651   5.476568   4.308146   4.712005
    21  H    1.094073   2.162391   3.422519   3.886739   3.400684
    22  H    2.162764   1.094016   2.163221   3.400720   3.888733
    23  H    3.427280   2.170515   1.094013   2.166714   3.446286
    24  H    2.170477   3.427980   3.928248   3.445389   2.166792
    25  H    4.680014   5.593595   5.454023   4.312912   3.005246
    26  H    6.910607   7.575036   7.068375   5.719199   4.784843
    27  H    7.748777   7.998422   7.095436   5.714356   5.352251
    28  H    5.579089   4.669744   3.271620   2.989726   4.295350
    29  H    7.944671   7.081884   5.682355   5.240585   6.379078
    30  H   10.024320   9.326969   7.930223   7.236798   8.132627
    31  H   10.366152   9.988326   8.673832   7.643302   8.140457
    32  H    8.797958   8.714689   7.560617   6.307165   6.424201
                    6          7          8          9         10
     6  C    0.000000
     7  C    2.617331   0.000000
     8  C    3.379273   1.386732   0.000000
     9  C    4.759433   2.407256   1.416621   0.000000
    10  C    5.425147   2.820537   2.461579   1.393168   0.000000
    11  C    5.011550   2.491009   2.871464   2.441942   1.419547
    12  C    3.692389   1.417189   2.410485   2.736680   2.387790
    13  C    3.672750   2.348794   3.641977   4.163695   3.751751
    14  C    4.989466   3.620930   4.807358   5.052993   4.300240
    15  C    6.068787   4.182850   5.087573   4.922244   3.843286
    16  C    7.391526   5.598368   6.485180   6.219884   5.031116
    17  C    8.503054   6.462333   7.143087   6.614548   5.289534
    18  C    8.522783   6.207494   6.627363   5.857638   4.471632
    19  C    7.440584   4.998969   5.294040   4.473642   3.085535
    20  C    6.101087   3.773789   4.321437   3.824661   2.579357
    21  H    2.163037   4.762549   5.510841   6.908126   7.580062
    22  H    3.423663   5.341515   6.509632   7.741864   7.996117
    23  H    3.928312   4.520004   5.894583   6.806434   6.636865
    24  H    1.093955   2.935617   3.238193   4.653108   5.565137
    25  H    3.282033   2.171151   1.093771   2.179505   3.442057
    26  H    5.523411   3.394129   2.167371   1.094172   2.146986
    27  H    6.512252   3.912344   3.437603   2.146759   1.092557
    28  H    5.437233   4.504048   5.771602   6.117026   5.394529
    29  H    7.650164   6.166947   7.194027   7.086270   5.977057
    30  H    9.497373   7.530564   8.235452   7.699868   6.363868
    31  H    9.529398   7.139977   7.430292   6.520443   5.129702
    32  H    7.754338   5.187809   5.191668   4.133606   2.771006
                   11         12         13         14         15
    11  C    0.000000
    12  C    1.398489   0.000000
    13  C    2.510660   1.435442   0.000000
    14  C    2.889749   2.411720   1.367156   0.000000
    15  C    2.490532   2.774825   2.432140   1.443603   0.000000
    16  C    3.780790   4.191335   3.719371   2.475725   1.416517
    17  C    4.286589   5.050459   4.874278   3.753213   2.442861
    18  C    3.787376   4.869373   5.099623   4.265696   2.822312
    19  C    2.517944   3.748197   4.281812   3.783585   2.449390
    20  C    1.456178   2.429561   2.871834   2.512573   1.438238
    21  H    7.075077   5.704551   5.337292   6.490809   7.762518
    22  H    7.083226   5.710696   4.761422   5.500948   6.929968
    23  H    5.445559   4.252257   2.935222   3.232926   4.672689
    24  H    5.426556   4.238073   4.516114   5.871869   6.826328
    25  H    3.964814   3.420055   4.519682   5.766693   6.149632
    26  H    3.425916   3.830830   5.257217   6.131272   5.915471
    27  H    2.187544   3.393720   4.678005   5.018871   4.282979
    28  H    3.983500   3.425024   2.155592   1.094315   2.186402
    29  H    4.651745   4.812568   4.035481   2.673802   2.164056
    30  H    5.380458   6.114974   5.837734   4.627826   3.432741
    31  H    4.667968   5.848633   6.170912   5.359590   3.916236
    32  H    2.748827   4.127662   4.945569   4.673616   3.441848
                   16         17         18         19         20
    16  C    0.000000
    17  C    1.384631   0.000000
    18  C    2.416345   1.408596   0.000000
    19  C    2.793050   2.422973   1.386998   0.000000
    20  C    2.456574   2.830792   2.441202   1.411951   0.000000
    21  H    8.966005  10.196646  10.398566   9.418341   8.034855
    22  H    7.866950   9.216515   9.741181   9.037387   7.630948
    23  H    5.452676   6.825236   7.489077   6.973110   5.619491
    24  H    8.196072   9.224912   9.104890   7.929564   6.663692
    25  H    7.555175   8.235833   7.711365   6.368081   5.415194
    26  H    7.160204   7.427255   6.531827   5.150734   4.719048
    27  H    5.265871   5.235661   4.181008   2.841071   2.869585
    28  H    2.681939   4.064162   4.868855   4.635041   3.486080
    29  H    1.094490   2.153110   3.411853   3.887530   3.443779
    30  H    2.152928   1.093875   2.173697   3.412626   3.924653
    31  H    3.406643   2.172853   1.093924   2.151972   3.428507
    32  H    3.885440   3.409139   2.144262   1.092478   2.167547
                   21         22         23         24         25
    21  H    0.000000
    22  H    2.483289   0.000000
    23  H    4.323817   2.495574   0.000000
    24  H    2.494784   4.324319   5.022228   0.000000
    25  H    5.251262   6.648777   6.434760   2.791241   0.000000
    26  H    7.620436   8.667343   7.864008   5.233063   2.489822
    27  H    8.669540   9.062113   7.602628   6.614772   4.321389
    28  H    6.635056   5.244577   2.785655   6.417580   6.674386
    29  H    9.015971   7.635979   5.150532   8.545661   8.230730
    30  H   11.116263   9.982513   7.533112  10.254802   9.327817
    31  H   11.444549  10.832436   8.581697  10.063011   8.494309
    32  H    9.823211   9.690443   7.773279   8.105584   6.207649
                   26         27         28         29         30
    26  H    0.000000
    27  H    2.450256   0.000000
    28  H    7.201830   6.100275   0.000000
    29  H    8.072913   6.298148   2.412745   0.000000
    30  H    8.493839   6.252041   4.747889   2.483158   0.000000
    31  H    7.066595   4.630335   5.943302   4.314666   2.503561
    32  H    4.608224   2.165626   5.603244   4.979929   4.308381
                   31         32
    31  H    0.000000
    32  H    2.465281   0.000000
 Framework group  CS[SG(C20H12)]
 Deg. of freedom    61
                         Standard orientation:                         
 ---------------------------------------------------------------------
 Center     Atomic      Atomic             Coordinates (Angstroms)
 Number     Number       Type             X           Y           Z
 ---------------------------------------------------------------------
      1          6           0        4.670604    0.619057    0.000000
      2          6           0        4.469251   -0.767691    0.000000
      3          6           0        3.173461   -1.302640    0.000000
      4          6           0        2.083889   -0.433705    0.000000
      5          6           0        2.289069    0.980934    0.000000
      6          6           0        3.581522    1.502148    0.000000
      7          6           0        0.967793    1.639410    0.000000
      8          6           0        0.530726    2.955464    0.000000
      9          6           0       -0.864511    3.200674    0.000000
     10          6           0       -1.802310    2.170407    0.000000
     11          6           0       -1.382603    0.814325    0.000000
     12          6           0        0.000000    0.604131    0.000000
     13          6           0        0.631113   -0.685129    0.000000
     14          6           0       -0.156674   -1.802495    0.000000
     15          6           0       -1.593925   -1.667225    0.000000
     16          6           0       -2.412000   -2.823630    0.000000
     17          6           0       -3.793465   -2.730049    0.000000
     18          6           0       -4.408837   -1.462981    0.000000
     19          6           0       -3.634437   -0.312300    0.000000
     20          6           0       -2.223847   -0.374272    0.000000
     21          1           0        5.689557    1.017467    0.000000
     22          1           0        5.332317   -1.439992    0.000000
     23          1           0        3.023108   -2.386272    0.000000
     24          1           0        3.747478    2.583442    0.000000
     25          1           0        1.232579    3.794354    0.000000
     26          1           0       -1.217711    4.236271    0.000000
     27          1           0       -2.865340    2.422691    0.000000
     28          1           0        0.269906   -2.810242    0.000000
     29          1           0       -1.928080   -3.805327    0.000000
     30          1           0       -4.405504   -3.636675    0.000000
     31          1           0       -5.499980   -1.385022    0.000000
     32          1           0       -4.127246    0.662711    0.000000
 ---------------------------------------------------------------------
 Rotational constants (GHZ):           0.7270014           0.2573869           0.1900882
   340 basis functions,   744 primitive gaussians,   360 cartesian basis functions
    66 alpha electrons       66 beta electrons
       nuclear repulsion energy      1337.6699535620 Hartrees.
 NAtoms=   32 NActive=   32 NUniq=   32 SFac= 1.00D+00 NAtFMM=   60 NAOKFM=F Big=F
 ExpMin= 1.22D-01 ExpMax= 6.67D+03 ExpMxC= 2.28D+02 IAcc=3 IRadAn=         5 AccDes= 0.00D+00
 Harris functional with IExCor=  205 and IRadAn=       5 diagonalized for initial guess.
 HarFok:  IExCor=  205 AccDes= 0.00D+00 IRadAn=         5 IDoV= 1 UseB2=F ITyADJ=14
 ICtDFT=  3500011 ScaDFX=  1.000000  1.000000  1.000000  1.000000
 FoFCou: FMM=F IPFlag=           0 FMFlag=      100000 FMFlg1=           0
         NFxFlg=           0 DoJE=T BraDBF=F KetDBF=T FulRan=T
         wScrn=  0.000000 ICntrl=       500 IOpCl=  0 I1Cent=   200000004 NGrid=           0
         NMat0=    1 NMatS0=      1 NMatT0=    0 NMatD0=    1 NMtDS0=    0 NMtDT0=    0
 Petite list used in FoFCou.
 Initial guess orbital symmetries:
       Occupied  (A') (A') (A') (A') (A') (A') (A') (A') (A') (A')
                 (A') (A') (A') (A') (A') (A') (A') (A') (A') (A')
                 (A') (A') (A') (A') (A') (A') (A') (A') (A') (A')
                 (A') (A') (A') (A') (A') (A') (A') (A') (A') (A')
                 (A') (A') (A') (A') (A') (A') (A') (A') (A') (A")
                 (A') (A') (A") (A') (A') (A') (A") (A') (A') (A")
                 (A") (A") (A") (A") (A") (A")
       Virtual   (A") (A") (A") (A") (A") (A") (A") (A") (A') (A')
                 (A') (A') (A') (A") (A') (A') (A') (A') (A") (A')
                 (A') (A') (A') (A') (A') (A') (A') (A') (A') (A')
                 (A') (A') (A') (A') (A') (A') (A') (A') (A') (A')
                 (A') (A') (A") (A') (A") (A') (A') (A") (A') (A')
                 (A') (A') (A') (A") (A') (A') (A') (A") (A') (A')
                 (A') (A') (A') (A") (A") (A') (A') (A") (A") (A')
                 (A") (A') (A') (A") (A") (A") (A') (A') (A') (A")
                 (A') (A') (A') (A") (A") (A') (A') (A') (A") (A')
                 (A") (A') (A") (A') (A") (A') (A") (A') (A') (A')
                 (A") (A') (A') (A') (A") (A') (A") (A') (A") (A')
                 (A') (A") (A') (A") (A") (A') (A") (A') (A") (A')
                 (A') (A") (A") (A') (A") (A') (A') (A") (A') (A")
                 (A') (A") (A') (A') (A') (A') (A') (A') (A') (A')
                 (A') (A') (A') (A") (A") (A') (A") (A') (A') (A")
                 (A') (A') (A') (A') (A") (A') (A") (A') (A") (A')
                 (A") (A") (A') (A') (A') (A') (A") (A') (A') (A')
                 (A") (A') (A') (A") (A') (A') (A") (A') (A") (A')
                 (A') (A") (A') (A") (A') (A") (A") (A') (A') (A')
                 (A") (A') (A") (A') (A') (A') (A") (A') (A') (A")
                 (A') (A') (A") (A') (A") (A') (A") (A') (A') (A')
                 (A') (A") (A') (A') (A') (A') (A') (A") (A') (A')
                 (A') (A") (A') (A") (A') (A") (A') (A') (A") (A')
                 (A') (A") (A') (A') (A") (A') (A') (A') (A") (A')
                 (A') (A") (A") (A') (A') (A') (A') (A') (A') (A')
                 (A') (A') (A') (A') (A') (A') (A') (A') (A') (A')
                 (A') (A') (A') (A') (A') (A') (A') (A') (A') (A')
                 (A') (A') (A') (A')
 The electronic state of the initial guess is 1-A'.
 Integral accuracy reduced to 1.0D-05 until final iterations.
 Initial convergence to 1.0D-05 achieved.  Increase integral accuracy.
 SCF Done:  E(RHF) =  -764.454136678     A.U. after   17 cycles
            NFock= 17  Conv=0.27D-08     -V/T= 2.0013
 ExpMin= 1.22D-01 ExpMax= 6.67D+03 ExpMxC= 2.28D+02 IAcc=3 IRadAn=         5 AccDes= 0.00D+00
 HarFok:  IExCor=  205 AccDes= 0.00D+00 IRadAn=         5 IDoV=-2 UseB2=F ITyADJ=14
 ICtDFT= 12500011 ScaDFX=  1.000000  1.000000  1.000000  1.000000
 NROrb=    320 NOA=    46 NOB=    46 NVA=   274 NVB=   274

 **** Warning!!: The largest alpha MO coefficient is  0.16078066D+02

 Semi-Direct transformation.
 ModeAB=           4 MOrb=            46 LenV=   16774308676
 LASXX=    355229365 LTotXX=   355229365 LenRXX=   714483057
 LTotAB=   359253692 MaxLAS=   769959040 LenRXY=           0
 NonZer=  1069712422 LenScr=  1610861568 LnRSAI=   769959040
 LnScr1=  1159468032 LExtra=           0 Total=   4254771697
 MaxDsk=          -1 SrtSym=           T ITran=            4
 JobTyp=0 Pass  1:  I=   1 to  46.
 (rs|ai) integrals will be sorted in core.
 ANorm=    0.1417007292D+01
 E2 =    -0.2579111729D+01 EUMP2 =    -0.76703324840781D+03
 CIDS: In Core Option IDoMem=           1.
 Produce multiple copies of IABC intergrals
 MP4(R+Q)=  0.83032427D-01
 E3=       -0.49980244D-01        EUMP3=      -0.76708322865D+03
 E4(DQ)=    0.97000662D-02        UMP4(DQ)=   -0.76707352859D+03
 E4(SDQ)=  -0.11881934D-01        UMP4(SDQ)=  -0.76709511059D+03
 DE(Corr)=  -2.5458959     E(Corr)=     -767.00003256    
 NORM(A)=   0.14018628D+01
 DE(Corr)=  -2.6341108     E(CORR)=     -767.08824751     Delta=-8.82D-02
 NORM(A)=   0.14365961D+01
 DE(Corr)=  -2.6344852     E(CORR)=     -767.08862186     Delta=-3.74D-04
 NORM(A)=   0.14418022D+01
 DE(Corr)=  -2.6418594     E(CORR)=     -767.09599603     Delta=-7.37D-03
 NORM(A)=   0.14439653D+01
 DE(Corr)=  -2.6427317     E(CORR)=     -767.09686839     Delta=-8.72D-04
 NORM(A)=   0.14447907D+01
 DE(Corr)=  -2.6428663     E(CORR)=     -767.09700293     Delta=-1.35D-04
 NORM(A)=   0.14449525D+01
 DE(Corr)=  -2.6428887     E(CORR)=     -767.09702536     Delta=-2.24D-05
 NORM(A)=   0.14449322D+01
 DE(Corr)=  -2.6429022     E(CORR)=     -767.09703883     Delta=-1.35D-05
 NORM(A)=   0.14449570D+01
 DE(Corr)=  -2.6428875     E(CORR)=     -767.09702413     Delta= 1.47D-05
 NORM(A)=   0.14449530D+01
 DE(Corr)=  -2.6428936     E(CORR)=     -767.09703027     Delta=-6.14D-06
 NORM(A)=   0.14449542D+01
 DE(Corr)=  -2.6428917     E(CORR)=     -767.09702841     Delta= 1.87D-06
 NORM(A)=   0.14449545D+01
 DE(Corr)=  -2.6428923     E(CORR)=     -767.09702896     Delta=-5.57D-07
 NORM(A)=   0.14449544D+01
 DE(Corr)=  -2.6428924     E(CORR)=     -767.09702906     Delta=-1.02D-07
 NORM(A)=   0.14449544D+01
 DE(Corr)=  -2.6428924     E(CORR)=     -767.09702909     Delta=-3.01D-08
 NORM(A)=   0.14449545D+01
 Wavefunction amplitudes converged. E(Corr)=     -767.09702909    
 Largest amplitude= 4.62D-02
 Time for triples=   476944.55 seconds.
 T4(CCSD)= -0.13655122D+00
 T5(CCSD)=  0.26589797D-02
 CCSD(T)= -0.76723092133D+03
 Discarding MO integrals.

 **********************************************************************

            Population analysis using the SCF Density.

 **********************************************************************

 Orbital symmetries:
       Occupied  (A') (A') (A') (A') (A') (A') (A') (A') (A') (A')
                 (A') (A') (A') (A') (A') (A') (A') (A') (A') (A')
                 (A') (A') (A') (A') (A') (A') (A') (A') (A') (A')
                 (A') (A') (A') (A') (A') (A') (A') (A') (A') (A')
                 (A') (A') (A') (A') (A') (A') (A') (A') (A') (A")
                 (A') (A') (A") (A') (A') (A') (A") (A') (A') (A")
                 (A") (A") (A") (A") (A") (A")
       Virtual   (A") (A") (A") (A") (A") (A') (A') (A') (A') (A")
                 (A') (A') (A') (A') (A') (A") (A') (A') (A') (A")
                 (A') (A") (A') (A') (A') (A') (A') (A") (A') (A')
                 (A') (A') (A') (A') (A') (A') (A') (A') (A') (A')
                 (A') (A") (A') (A') (A') (A") (A') (A") (A') (A')
                 (A") (A') (A") (A') (A') (A') (A') (A') (A") (A')
                 (A') (A") (A') (A') (A') (A') (A") (A') (A") (A")
                 (A') (A') (A") (A') (A") (A") (A') (A") (A') (A')
                 (A") (A') (A') (A') (A") (A') (A') (A") (A') (A')
                 (A") (A") (A') (A') (A") (A") (A') (A') (A") (A')
                 (A') (A') (A') (A') (A') (A") (A') (A") (A') (A")
                 (A') (A') (A') (A") (A') (A") (A') (A") (A") (A')
                 (A") (A') (A") (A') (A") (A') (A") (A') (A') (A")
                 (A') (A') (A") (A") (A') (A') (A') (A') (A') (A')
                 (A') (A') (A') (A") (A') (A") (A') (A") (A') (A')
                 (A") (A') (A') (A') (A") (A") (A') (A") (A') (A")
                 (A") (A') (A') (A') (A") (A') (A') (A") (A') (A')
                 (A') (A") (A') (A') (A") (A') (A") (A") (A') (A')
                 (A") (A') (A') (A') (A") (A') (A') (A") (A') (A')
                 (A') (A") (A') (A') (A") (A') (A") (A') (A") (A')
                 (A') (A") (A') (A") (A') (A") (A') (A') (A') (A')
                 (A') (A") (A') (A') (A') (A') (A") (A') (A') (A')
                 (A") (A') (A") (A') (A') (A") (A') (A') (A") (A')
                 (A') (A") (A') (A') (A") (A') (A') (A') (A") (A')
                 (A') (A") (A") (A') (A') (A') (A') (A') (A') (A')
                 (A') (A') (A') (A') (A') (A') (A') (A') (A') (A')
                 (A') (A') (A') (A') (A') (A') (A') (A') (A') (A')
                 (A') (A') (A') (A')
 The electronic state is 1-A'.
 Alpha  occ. eigenvalues --  -11.25813 -11.25657 -11.25529 -11.25245 -11.25083
 Alpha  occ. eigenvalues --  -11.24996 -11.24924 -11.24899 -11.24833 -11.24776
 Alpha  occ. eigenvalues --  -11.24738 -11.24733 -11.24710 -11.24709 -11.24624
 Alpha  occ. eigenvalues --  -11.24586 -11.24508 -11.24507 -11.24391 -11.23334
 Alpha  occ. eigenvalues --   -1.20898  -1.16575  -1.13788  -1.10171  -1.07320
 Alpha  occ. eigenvalues --   -1.04368  -1.02721  -0.99043  -0.98089  -0.97787
 Alpha  occ. eigenvalues --   -0.88159  -0.87145  -0.82973  -0.82703  -0.80088
 Alpha  occ. eigenvalues --   -0.77704  -0.73641  -0.71408  -0.69263  -0.67308
 Alpha  occ. eigenvalues --   -0.65907  -0.64900  -0.62691  -0.61391  -0.59976
 Alpha  occ. eigenvalues --   -0.59441  -0.59059  -0.58370  -0.57507  -0.56384
 Alpha  occ. eigenvalues --   -0.55887  -0.53058  -0.51636  -0.51627  -0.49915
 Alpha  occ. eigenvalues --   -0.49239  -0.48395  -0.47457  -0.46807  -0.43730
 Alpha  occ. eigenvalues --   -0.39659  -0.36416  -0.35102  -0.29857  -0.28955
 Alpha  occ. eigenvalues --   -0.27784
 Alpha virt. eigenvalues --    0.04994   0.08219   0.12310   0.14422   0.15941
 Alpha virt. eigenvalues --    0.18059   0.18461   0.18695   0.20227   0.20596
 Alpha virt. eigenvalues --    0.20766   0.22776   0.23293   0.24282   0.25193
 Alpha virt. eigenvalues --    0.25218   0.28916   0.30197   0.32233   0.33139
 Alpha virt. eigenvalues --    0.36570   0.38566   0.38914   0.40378   0.40803
 Alpha virt. eigenvalues --    0.42091   0.43367   0.43575   0.44392   0.45482
 Alpha virt. eigenvalues --    0.46070   0.46889   0.48849   0.51959   0.52531
 Alpha virt. eigenvalues --    0.53728   0.56014   0.58346   0.59676   0.63046
 Alpha virt. eigenvalues --    0.64304   0.65792   0.66101   0.67027   0.67377
 Alpha virt. eigenvalues --    0.67505   0.67976   0.68358   0.69199   0.69626
 Alpha virt. eigenvalues --    0.69998   0.70242   0.70969   0.71079   0.71299
 Alpha virt. eigenvalues --    0.72217   0.72683   0.73128   0.73128   0.73706
 Alpha virt. eigenvalues --    0.73871   0.73969   0.74162   0.75840   0.76047
 Alpha virt. eigenvalues --    0.76798   0.77028   0.77584   0.77984   0.78673
 Alpha virt. eigenvalues --    0.80240   0.81014   0.81863   0.82883   0.83420
 Alpha virt. eigenvalues --    0.84486   0.84673   0.86025   0.86374   0.87851
 Alpha virt. eigenvalues --    0.88798   0.89353   0.89701   0.89943   0.90528
 Alpha virt. eigenvalues --    0.90965   0.92022   0.92933   0.93977   0.94796
 Alpha virt. eigenvalues --    0.96153   0.96404   0.97391   1.01447   1.03319
 Alpha virt. eigenvalues --    1.04852   1.06255   1.06742   1.09034   1.09864
 Alpha virt. eigenvalues --    1.10244   1.11669   1.12413   1.13691   1.13876
 Alpha virt. eigenvalues --    1.14262   1.14779   1.14836   1.16370   1.16724
 Alpha virt. eigenvalues --    1.16999   1.17955   1.18351   1.18391   1.19540
 Alpha virt. eigenvalues --    1.19733   1.20736   1.21030   1.22060   1.22417
 Alpha virt. eigenvalues --    1.23760   1.24746   1.26830   1.27439   1.27625
 Alpha virt. eigenvalues --    1.28140   1.28569   1.29189   1.30387   1.30953
 Alpha virt. eigenvalues --    1.31384   1.32438   1.32544   1.34023   1.35240
 Alpha virt. eigenvalues --    1.38780   1.39287   1.40277   1.45127   1.52123
 Alpha virt. eigenvalues --    1.53225   1.55949   1.56820   1.59518   1.59999
 Alpha virt. eigenvalues --    1.60750   1.61019   1.61284   1.63345   1.64604
 Alpha virt. eigenvalues --    1.64803   1.67722   1.69444   1.71635   1.71946
 Alpha virt. eigenvalues --    1.72638   1.73096   1.73830   1.74123   1.74260
 Alpha virt. eigenvalues --    1.74450   1.76638   1.78035   1.79636   1.80854
 Alpha virt. eigenvalues --    1.81513   1.82323   1.83934   1.84349   1.85460
 Alpha virt. eigenvalues --    1.86486   1.87984   1.88546   1.88855   1.90097
 Alpha virt. eigenvalues --    1.90291   1.90572   1.91252   1.92191   1.92999
 Alpha virt. eigenvalues --    1.93015   1.94379   1.95917   1.96831   1.97073
 Alpha virt. eigenvalues --    1.98183   1.98660   1.98830   1.99746   2.01396
 Alpha virt. eigenvalues --    2.02792   2.03044   2.03699   2.05257   2.05600
 Alpha virt. eigenvalues --    2.06199   2.07161   2.07947   2.09555   2.09996
 Alpha virt. eigenvalues --    2.10963   2.11707   2.13377   2.13542   2.14488
 Alpha virt. eigenvalues --    2.15016   2.15154   2.15288   2.15926   2.17334
 Alpha virt. eigenvalues --    2.18537   2.19236   2.20142   2.21151   2.22592
 Alpha virt. eigenvalues --    2.23575   2.24247   2.26863   2.28137   2.28450
 Alpha virt. eigenvalues --    2.29870   2.31331   2.32487   2.33144   2.33589
 Alpha virt. eigenvalues --    2.35244   2.36835   2.40710   2.43410   2.44072
 Alpha virt. eigenvalues --    2.44938   2.46458   2.49571   2.50523   2.51806
 Alpha virt. eigenvalues --    2.55961   2.57516   2.59591   2.61437   2.62282
 Alpha virt. eigenvalues --    2.64826   2.67262   2.67884   2.70057   2.71610
 Alpha virt. eigenvalues --    2.72877   2.73365   2.75069   2.78616   2.79706
 Alpha virt. eigenvalues --    2.82211   2.85633   2.90807   2.91496   2.94944
 Alpha virt. eigenvalues --    2.96695   3.00335   3.01749   3.02968   3.04908
 Alpha virt. eigenvalues --    3.06413   3.07409   3.09624   3.12917   3.17701
 Alpha virt. eigenvalues --    3.19492   3.20921   3.28948   3.33988   3.35013
 Alpha virt. eigenvalues --    3.64798   3.74398   3.87294   3.97230
          Condensed to atoms (all electrons):
 Mulliken charges:
               1
     1  C   -0.002256
     2  C   -0.004353
     3  C   -0.014313
     4  C   -0.041340
     5  C   -0.040664
     6  C   -0.013535
     7  C   -0.002679
     8  C   -0.042837
     9  C    0.028937
    10  C   -0.037226
    11  C    0.009020
    12  C    0.025386
    13  C    0.004431
    14  C    0.014568
    15  C   -0.081469
    16  C    0.025277
    17  C   -0.012241
    18  C    0.002916
    19  C   -0.013847
    20  C   -0.072489
    21  H    0.029371
    22  H    0.028935
    23  H    0.015858
    24  H    0.015838
    25  H    0.016912
    26  H    0.029381
    27  H    0.021828
    28  H    0.012032
    29  H    0.018576
    30  H    0.029892
    31  H    0.028955
    32  H    0.021136
 Sum of Mulliken charges =  -0.00000
 Mulliken charges with hydrogens summed into heavy atoms:
               1
     1  C    0.027115
     2  C    0.024582
     3  C    0.001545
     4  C   -0.041340
     5  C   -0.040664
     6  C    0.002303
     7  C   -0.002679
     8  C   -0.025925
     9  C    0.058318
    10  C   -0.015398
    11  C    0.009020
    12  C    0.025386
    13  C    0.004431
    14  C    0.026600
    15  C   -0.081469
    16  C    0.043854
    17  C    0.017651
    18  C    0.031871
    19  C    0.007289
    20  C   -0.072489
 Electronic spatial extent (au):  <R**2>=           5443.6391
 Charge=             -0.0000 electrons
 Dipole moment (field-independent basis, Debye):
    X=             -0.2428    Y=             -0.1407    Z=              0.0000  Tot=              0.2806
 Unable to Open any file for archive entry.
 1\1\GINC-NODE01\SP\RCCSD(T)-FC\CC-pVDZ\C20H12\XUHJ\31-Jul-2025\0\\#T C
 CSD(T)/cc-pVDZ symm=veryloose\\c1ccc2c(c1)-c1cccc3c1c-2cc1ccccc13\\0,1
 \C,0,4.670604,0.619057,0.\C,0,4.469251,-0.767691,0.\C,0,3.173461,-1.30
 264,0.\C,0,2.083889,-0.433705,0.\C,0,2.289069,0.980934,0.\C,0,3.581522
 ,1.502148,0.\C,0,0.967793,1.63941,0.\C,0,0.530726,2.955464,0.\C,0,-0.8
 64511,3.200674,0.\C,0,-1.80231,2.170407,0.\C,0,-1.382603,0.814325,0.\C
 ,0,0.,0.604131,0.\C,0,0.631113,-0.685129,0.\C,0,-0.156674,-1.802495,0.
 \C,0,-1.593925,-1.667225,0.\C,0,-2.412,-2.82363,0.\C,0,-3.793465,-2.73
 0049,0.\C,0,-4.408837,-1.462981,0.\C,0,-3.634437,-0.3123,0.\C,0,-2.223
 847,-0.374272,0.\H,0,5.689557,1.017467,0.\H,0,5.332317,-1.439992,0.\H,
 0,3.023108,-2.386272,0.\H,0,3.747478,2.583442,0.\H,0,1.232579,3.794354
 ,0.\H,0,-1.217711,4.236271,0.\H,0,-2.86534,2.422691,0.\H,0,0.269906,-2
 .810242,0.\H,0,-1.92808,-3.805327,0.\H,0,-4.405504,-3.636675,0.\H,0,-5
 .49998,-1.385022,0.\H,0,-4.127246,0.662711,0.\\Version=ES64L-G16RevC.0
 1\State=1-A'\HF=-764.4541367\MP2=-767.0332484\MP3=-767.0832287\MP4D=-7
 67.156561\MP4DQ=-767.0735286\MP4SDQ=-767.0951106\CCSD=-767.0970291\CCS
 D(T)=-767.2309213\RMSD=2.739e-09\PG=CS [SG(C20H12)]\\@
 The archive entry for this job was punched.


 SCIENCE IS LONG AND LIFE IS SHORT.

                     DON MOSER IN THE FEBRUARY 1979 SMITHSONIAN
 Job cpu time:       6 days  6 hours  7 minutes  5.2 seconds.
 Elapsed time:       0 days  4 hours 42 minutes 40.4 seconds.
 File lengths (MBytes):  RWF=  33988 Int=      0 D2E=      0 Chk=      9 Scr=      1
 Normal termination of Gaussian 16 at Thu Jul 31 17:12:40 2025.
 Initial command:
 /opt/g16/l1.exe "/tmp/Gau-250190.inp" -scrdir="/tmp/"
 Entering Link 1 = /opt/g16/l1.exe PID=     81397.
  
 Copyright (c) 1988-2019, Gaussian, Inc.  All Rights Reserved.
  
 This is part of the Gaussian(R) 16 program.  It is based on
 the Gaussian(R) 09 system (copyright 2009, Gaussian, Inc.),
 the Gaussian(R) 03 system (copyright 2003, Gaussian, Inc.),
 the Gaussian(R) 98 system (copyright 1998, Gaussian, Inc.),
 the Gaussian(R) 94 system (copyright 1995, Gaussian, Inc.),
 the Gaussian 92(TM) system (copyright 1992, Gaussian, Inc.),
 the Gaussian 90(TM) system (copyright 1990, Gaussian, Inc.),
 the Gaussian 88(TM) system (copyright 1988, Gaussian, Inc.),
 the Gaussian 86(TM) system (copyright 1986, Carnegie Mellon
 University), and the Gaussian 82(TM) system (copyright 1983,
 Carnegie Mellon University). Gaussian is a federally registered
 trademark of Gaussian, Inc.
  
 This software contains proprietary and confidential information,
 including trade secrets, belonging to Gaussian, Inc.
  
 This software is provided under written license and may be
 used, copied, transmitted, or stored only in accord with that
 written license.
  
 The following legend is applicable only to US Government
 contracts under FAR:
  
                    RESTRICTED RIGHTS LEGEND
  
 Use, reproduction and disclosure by the US Government is
 subject to restrictions as set forth in subparagraphs (a)
 and (c) of the Commercial Computer Software - Restricted
 Rights clause in FAR 52.227-19.
  
 Gaussian, Inc.
 340 Quinnipiac St., Bldg. 40, Wallingford CT 06492
  
  
 ---------------------------------------------------------------
 Warning -- This program may not be used in any manner that
 competes with the business of Gaussian, Inc. or will provide
 assistance to any competitor of Gaussian, Inc.  The licensee
 of this program is prohibited from giving any competitor of
 Gaussian, Inc. access to this program.  By using this program,
 the user acknowledges that Gaussian, Inc. is engaged in the
 business of creating and licensing software in the field of
 computational chemistry and represents and warrants to the
 licensee that it is not a competitor of Gaussian, Inc. and that
 it will not use this program in any manner prohibited above.
 ---------------------------------------------------------------
  

 Cite this work as:
 Gaussian 16, Revision C.01,
 M. J. Frisch, G. W. Trucks, H. B. Schlegel, G. E. Scuseria, 
 M. A. Robb, J. R. Cheeseman, G. Scalmani, V. Barone, 
 G. A. Petersson, H. Nakatsuji, X. Li, M. Caricato, A. V. Marenich, 
 J. Bloino, B. G. Janesko, R. Gomperts, B. Mennucci, H. P. Hratchian, 
 J. V. Ortiz, A. F. Izmaylov, J. L. Sonnenberg, D. Williams-Young, 
 F. Ding, F. Lipparini, F. Egidi, J. Goings, B. Peng, A. Petrone, 
 T. Henderson, D. Ranasinghe, V. G. Zakrzewski, J. Gao, N. Rega, 
 G. Zheng, W. Liang, M. Hada, M. Ehara, K. Toyota, R. Fukuda, 
 J. Hasegawa, M. Ishida, T. Nakajima, Y. Honda, O. Kitao, H. Nakai, 
 T. Vreven, K. Throssell, J. A. Montgomery, Jr., J. E. Peralta, 
 F. Ogliaro, M. J. Bearpark, J. J. Heyd, E. N. Brothers, K. N. Kudin, 
 V. N. Staroverov, T. A. Keith, R. Kobayashi, J. Normand, 
 K. Raghavachari, A. P. Rendell, J. C. Burant, S. S. Iyengar, 
 J. Tomasi, M. Cossi, J. M. Millam, M. Klene, C. Adamo, R. Cammi, 
 J. W. Ochterski, R. L. Martin, K. Morokuma, O. Farkas, 
 J. B. Foresman, and D. J. Fox, Gaussian, Inc., Wallingford CT, 2019.
 
 ******************************************
 Gaussian 16:  ES64L-G16RevC.01  3-Jul-2019
                31-Jul-2025 
 ******************************************
 %nprocshared=32
 Will use up to   32 processors via shared memory.
 %mem=128000MB
 %chk=FTOVXSOBNPWTSH-UHFFFAOYSA-N-1.chk
 -----------------------------------------------
 #T CCSD(T)/cc-pVTZ symm=veryloose geom=allcheck
 -----------------------------------------------
 Structure from the checkpoint file:  "FTOVXSOBNPWTSH-UHFFFAOYSA-N-1.chk"
 ----------------------------------
 c1ccc2c(c1)-c1cccc3c1c-2cc1ccccc13
 ----------------------------------
 Charge =  0 Multiplicity = 1
 Z-Matrix found in chk file.
 C,0,4.670604,0.619057,0.
 C,0,4.469251,-0.767691,0.
 C,0,3.173461,-1.30264,0.
 C,0,2.083889,-0.433705,0.
 C,0,2.289069,0.980934,0.
 C,0,3.581522,1.502148,0.
 C,0,0.967793,1.63941,0.
 C,0,0.530726,2.955464,0.
 C,0,-0.864511,3.200674,0.
 C,0,-1.80231,2.170407,0.
 C,0,-1.382603,0.814325,0.
 C,0,0.,0.604131,0.
 C,0,0.631113,-0.685129,0.
 C,0,-0.156674,-1.802495,0.
 C,0,-1.593925,-1.667225,0.
 C,0,-2.412,-2.82363,0.
 C,0,-3.793465,-2.730049,0.
 C,0,-4.408837,-1.462981,0.
 C,0,-3.634437,-0.3123,0.
 C,0,-2.223847,-0.374272,0.
 H,0,5.689557,1.017467,0.
 H,0,5.332317,-1.439992,0.
 H,0,3.023108,-2.386272,0.
 H,0,3.747478,2.583442,0.
 H,0,1.232579,3.794354,0.
 H,0,-1.217711,4.236271,0.
 H,0,-2.86534,2.422691,0.
 H,0,0.269906,-2.810242,0.
 H,0,-1.92808,-3.805327,0.
 H,0,-4.405504,-3.636675,0.
 H,0,-5.49998,-1.385022,0.
 H,0,-4.127246,0.662711,0.
 Recover connectivity data from disk.
                    Distance matrix (angstroms):
                    1          2          3          4          5
     1  C    0.000000
     2  C    1.401290   0.000000
     3  C    2.436053   1.401871   0.000000
     4  C    2.792741   2.408630   1.393634   0.000000
     5  C    2.408872   2.794796   2.448849   1.429441   0.000000
     6  C    1.402123   2.437259   2.834316   2.447536   1.393592
     7  C    3.840824   4.249040   3.677041   2.354459   1.476266
     8  C    4.753671   5.419766   5.011536   3.728107   2.643963
     9  C    6.107556   6.648078   6.048558   4.679933   3.856464
    10  C    6.656223   6.925669   6.067978   4.678028   4.260778
    11  C    6.056356   6.061928   5.023869   3.684311   3.675450
    12  C    4.670628   4.675051   3.702247   2.328024   2.319874
    13  C    4.244807   3.839026   2.616267   1.474372   2.350443
    14  C    5.400604   4.740253   3.367440   2.625587   3.705285
    15  C    6.668689   6.129540   4.781306   3.879161   4.700041
    16  C    7.874984   7.181817   5.788850   5.091636   6.047707
    17  C    9.102581   8.492545   7.111649   6.310031   7.125210
    18  C    9.315102   8.905272   7.583993   6.573804   7.129843
    19  C    8.357101   8.116473   6.879553   5.719615   6.063034
    20  C    6.965641   6.704651   5.476568   4.308146   4.712005
    21  H    1.094073   2.162391   3.422519   3.886739   3.400684
    22  H    2.162764   1.094016   2.163221   3.400720   3.888733
    23  H    3.427280   2.170515   1.094013   2.166714   3.446286
    24  H    2.170477   3.427980   3.928248   3.445389   2.166792
    25  H    4.680014   5.593595   5.454023   4.312912   3.005246
    26  H    6.910607   7.575036   7.068375   5.719199   4.784843
    27  H    7.748777   7.998422   7.095436   5.714356   5.352251
    28  H    5.579089   4.669744   3.271620   2.989726   4.295350
    29  H    7.944671   7.081884   5.682355   5.240585   6.379078
    30  H   10.024320   9.326969   7.930223   7.236798   8.132627
    31  H   10.366152   9.988326   8.673832   7.643302   8.140457
    32  H    8.797958   8.714689   7.560617   6.307165   6.424201
                    6          7          8          9         10
     6  C    0.000000
     7  C    2.617331   0.000000
     8  C    3.379273   1.386732   0.000000
     9  C    4.759433   2.407256   1.416621   0.000000
    10  C    5.425147   2.820537   2.461579   1.393168   0.000000
    11  C    5.011550   2.491009   2.871464   2.441942   1.419547
    12  C    3.692389   1.417189   2.410485   2.736680   2.387790
    13  C    3.672750   2.348794   3.641977   4.163695   3.751751
    14  C    4.989466   3.620930   4.807358   5.052993   4.300240
    15  C    6.068787   4.182850   5.087573   4.922244   3.843286
    16  C    7.391526   5.598368   6.485180   6.219884   5.031116
    17  C    8.503054   6.462333   7.143087   6.614548   5.289534
    18  C    8.522783   6.207494   6.627363   5.857638   4.471632
    19  C    7.440584   4.998969   5.294040   4.473642   3.085535
    20  C    6.101087   3.773789   4.321437   3.824661   2.579357
    21  H    2.163037   4.762549   5.510841   6.908126   7.580062
    22  H    3.423663   5.341515   6.509632   7.741864   7.996117
    23  H    3.928312   4.520004   5.894583   6.806434   6.636865
    24  H    1.093955   2.935617   3.238193   4.653108   5.565137
    25  H    3.282033   2.171151   1.093771   2.179505   3.442057
    26  H    5.523411   3.394129   2.167371   1.094172   2.146986
    27  H    6.512252   3.912344   3.437603   2.146759   1.092557
    28  H    5.437233   4.504048   5.771602   6.117026   5.394529
    29  H    7.650164   6.166947   7.194027   7.086270   5.977057
    30  H    9.497373   7.530564   8.235452   7.699868   6.363868
    31  H    9.529398   7.139977   7.430292   6.520443   5.129702
    32  H    7.754338   5.187809   5.191668   4.133606   2.771006
                   11         12         13         14         15
    11  C    0.000000
    12  C    1.398489   0.000000
    13  C    2.510660   1.435442   0.000000
    14  C    2.889749   2.411720   1.367156   0.000000
    15  C    2.490532   2.774825   2.432140   1.443603   0.000000
    16  C    3.780790   4.191335   3.719371   2.475725   1.416517
    17  C    4.286589   5.050459   4.874278   3.753213   2.442861
    18  C    3.787376   4.869373   5.099623   4.265696   2.822312
    19  C    2.517944   3.748197   4.281812   3.783585   2.449390
    20  C    1.456178   2.429561   2.871834   2.512573   1.438238
    21  H    7.075077   5.704551   5.337292   6.490809   7.762518
    22  H    7.083226   5.710696   4.761422   5.500948   6.929968
    23  H    5.445559   4.252257   2.935222   3.232926   4.672689
    24  H    5.426556   4.238073   4.516114   5.871869   6.826328
    25  H    3.964814   3.420055   4.519682   5.766693   6.149632
    26  H    3.425916   3.830830   5.257217   6.131272   5.915471
    27  H    2.187544   3.393720   4.678005   5.018871   4.282979
    28  H    3.983500   3.425024   2.155592   1.094315   2.186402
    29  H    4.651745   4.812568   4.035481   2.673802   2.164056
    30  H    5.380458   6.114974   5.837734   4.627826   3.432741
    31  H    4.667968   5.848633   6.170912   5.359590   3.916236
    32  H    2.748827   4.127662   4.945569   4.673616   3.441848
                   16         17         18         19         20
    16  C    0.000000
    17  C    1.384631   0.000000
    18  C    2.416345   1.408596   0.000000
    19  C    2.793050   2.422973   1.386998   0.000000
    20  C    2.456574   2.830792   2.441202   1.411951   0.000000
    21  H    8.966005  10.196646  10.398566   9.418341   8.034855
    22  H    7.866950   9.216515   9.741181   9.037387   7.630948
    23  H    5.452676   6.825236   7.489077   6.973110   5.619491
    24  H    8.196072   9.224912   9.104890   7.929564   6.663692
    25  H    7.555175   8.235833   7.711365   6.368081   5.415194
    26  H    7.160204   7.427255   6.531827   5.150734   4.719048
    27  H    5.265871   5.235661   4.181008   2.841071   2.869585
    28  H    2.681939   4.064162   4.868855   4.635041   3.486080
    29  H    1.094490   2.153110   3.411853   3.887530   3.443779
    30  H    2.152928   1.093875   2.173697   3.412626   3.924653
    31  H    3.406643   2.172853   1.093924   2.151972   3.428507
    32  H    3.885440   3.409139   2.144262   1.092478   2.167547
                   21         22         23         24         25
    21  H    0.000000
    22  H    2.483289   0.000000
    23  H    4.323817   2.495574   0.000000
    24  H    2.494784   4.324319   5.022228   0.000000
    25  H    5.251262   6.648777   6.434760   2.791241   0.000000
    26  H    7.620436   8.667343   7.864008   5.233063   2.489822
    27  H    8.669540   9.062113   7.602628   6.614772   4.321389
    28  H    6.635056   5.244577   2.785655   6.417580   6.674386
    29  H    9.015971   7.635979   5.150532   8.545661   8.230730
    30  H   11.116263   9.982513   7.533112  10.254802   9.327817
    31  H   11.444549  10.832436   8.581697  10.063011   8.494309
    32  H    9.823211   9.690443   7.773279   8.105584   6.207649
                   26         27         28         29         30
    26  H    0.000000
    27  H    2.450256   0.000000
    28  H    7.201830   6.100275   0.000000
    29  H    8.072913   6.298148   2.412745   0.000000
    30  H    8.493839   6.252041   4.747889   2.483158   0.000000
    31  H    7.066595   4.630335   5.943302   4.314666   2.503561
    32  H    4.608224   2.165626   5.603244   4.979929   4.308381
                   31         32
    31  H    0.000000
    32  H    2.465281   0.000000
 Framework group  CS[SG(C20H12)]
 Deg. of freedom    61
                         Standard orientation:                         
 ---------------------------------------------------------------------
 Center     Atomic      Atomic             Coordinates (Angstroms)
 Number     Number       Type             X           Y           Z
 ---------------------------------------------------------------------
      1          6           0        4.670604    0.619057    0.000000
      2          6           0        4.469251   -0.767691    0.000000
      3          6           0        3.173461   -1.302640    0.000000
      4          6           0        2.083889   -0.433705    0.000000
      5          6           0        2.289069    0.980934    0.000000
      6          6           0        3.581522    1.502148    0.000000
      7          6           0        0.967793    1.639410    0.000000
      8          6           0        0.530726    2.955464    0.000000
      9          6           0       -0.864511    3.200674    0.000000
     10          6           0       -1.802310    2.170407    0.000000
     11          6           0       -1.382603    0.814325    0.000000
     12          6           0        0.000000    0.604131    0.000000
     13          6           0        0.631113   -0.685129    0.000000
     14          6           0       -0.156674   -1.802495    0.000000
     15          6           0       -1.593925   -1.667225    0.000000
     16          6           0       -2.412000   -2.823630    0.000000
     17          6           0       -3.793465   -2.730049    0.000000
     18          6           0       -4.408837   -1.462981    0.000000
     19          6           0       -3.634437   -0.312300    0.000000
     20          6           0       -2.223847   -0.374272    0.000000
     21          1           0        5.689557    1.017467    0.000000
     22          1           0        5.332317   -1.439992    0.000000
     23          1           0        3.023108   -2.386272    0.000000
     24          1           0        3.747478    2.583442    0.000000
     25          1           0        1.232579    3.794354    0.000000
     26          1           0       -1.217711    4.236271    0.000000
     27          1           0       -2.865340    2.422691    0.000000
     28          1           0        0.269906   -2.810242    0.000000
     29          1           0       -1.928080   -3.805327    0.000000
     30          1           0       -4.405504   -3.636675    0.000000
     31          1           0       -5.499980   -1.385022    0.000000
     32          1           0       -4.127246    0.662711    0.000000
 ---------------------------------------------------------------------
 Rotational constants (GHZ):           0.7270014           0.2573869           0.1900882
   768 basis functions,  1244 primitive gaussians,   880 cartesian basis functions
    66 alpha electrons       66 beta electrons
       nuclear repulsion energy      1337.6699535620 Hartrees.
 NAtoms=   32 NActive=   32 NUniq=   32 SFac= 1.00D+00 NAtFMM=   60 NAOKFM=F Big=F
 ExpMin= 1.03D-01 ExpMax= 8.24D+03 ExpMxC= 2.81D+02 IAcc=3 IRadAn=         5 AccDes= 0.00D+00
 Harris functional with IExCor=  205 and IRadAn=       5 diagonalized for initial guess.
 HarFok:  IExCor=  205 AccDes= 0.00D+00 IRadAn=         5 IDoV= 1 UseB2=F ITyADJ=14
 ICtDFT=  3500011 ScaDFX=  1.000000  1.000000  1.000000  1.000000
 FoFCou: FMM=F IPFlag=           0 FMFlag=      100000 FMFlg1=           0
         NFxFlg=           0 DoJE=T BraDBF=F KetDBF=T FulRan=T
         wScrn=  0.000000 ICntrl=       500 IOpCl=  0 I1Cent=   200000004 NGrid=           0
         NMat0=    1 NMatS0=      1 NMatT0=    0 NMatD0=    1 NMtDS0=    0 NMtDT0=    0
 Petite list used in FoFCou.
 Initial guess orbital symmetries:
       Occupied  (A') (A') (A') (A') (A') (A') (A') (A') (A') (A')
                 (A') (A') (A') (A') (A') (A') (A') (A') (A') (A')
                 (A') (A') (A') (A') (A') (A') (A') (A') (A') (A')
                 (A') (A') (A') (A') (A') (A') (A') (A') (A') (A')
                 (A') (A') (A') (A') (A') (A') (A') (A') (A') (A")
                 (A') (A') (A") (A') (A') (A') (A") (A') (A') (A")
                 (A") (A") (A") (A") (A") (A")
       Virtual   (A") (A") (A") (A") (A") (A") (A") (A") (A') (A')
                 (A') (A') (A') (A") (A') (A') (A') (A') (A") (A')
                 (A') (A') (A') (A') (A') (A') (A') (A') (A') (A')
                 (A') (A') (A') (A') (A') (A') (A") (A') (A') (A')
                 (A") (A') (A") (A') (A') (A') (A") (A") (A') (A')
                 (A') (A") (A') (A") (A') (A') (A') (A") (A') (A')
                 (A') (A") (A') (A") (A') (A") (A') (A') (A") (A")
                 (A') (A') (A') (A") (A') (A") (A') (A') (A") (A')
                 (A') (A') (A') (A') (A") (A') (A') (A") (A') (A')
                 (A") (A') (A") (A') (A') (A") (A') (A') (A') (A')
                 (A') (A') (A") (A") (A') (A") (A') (A') (A") (A")
                 (A') (A') (A") (A') (A") (A') (A") (A') (A") (A')
                 (A') (A') (A") (A') (A") (A') (A') (A") (A') (A')
                 (A") (A') (A') (A") (A') (A") (A') (A') (A') (A')
                 (A') (A') (A') (A') (A") (A') (A') (A") (A') (A")
                 (A") (A') (A') (A') (A") (A') (A") (A') (A") (A')
                 (A') (A") (A") (A') (A') (A') (A") (A') (A") (A')
                 (A') (A") (A") (A') (A') (A") (A') (A") (A') (A')
                 (A') (A') (A") (A') (A') (A') (A") (A') (A') (A")
                 (A') (A') (A") (A') (A') (A") (A') (A") (A') (A')
                 (A') (A') (A") (A') (A") (A') (A') (A") (A') (A")
                 (A') (A') (A') (A') (A') (A") (A") (A') (A') (A')
                 (A') (A') (A') (A") (A') (A") (A") (A') (A') (A')
                 (A') (A') (A') (A") (A') (A') (A') (A') (A') (A')
                 (A') (A") (A') (A') (A') (A") (A") (A') (A') (A')
                 (A') (A') (A') (A") (A') (A") (A') (A") (A') (A")
                 (A') (A') (A') (A") (A") (A') (A') (A") (A') (A')
                 (A") (A") (A') (A') (A') (A") (A") (A") (A') (A")
                 (A') (A") (A') (A") (A') (A") (A') (A") (A') (A')
                 (A') (A") (A") (A') (A') (A') (A') (A') (A') (A')
                 (A") (A') (A") (A') (A') (A') (A') (A') (A') (A")
                 (A") (A') (A") (A') (A") (A") (A') (A') (A') (A")
                 (A') (A') (A') (A') (A') (A") (A') (A") (A') (A")
                 (A") (A') (A') (A") (A') (A") (A") (A") (A") (A')
                 (A') (A") (A') (A") (A') (A") (A') (A") (A') (A")
                 (A") (A") (A") (A') (A') (A') (A") (A') (A') (A')
                 (A') (A") (A') (A') (A') (A") (A") (A') (A") (A')
                 (A") (A') (A") (A') (A") (A') (A') (A') (A") (A")
                 (A') (A') (A") (A") (A') (A") (A') (A') (A") (A")
                 (A') (A') (A') (A") (A') (A') (A") (A") (A') (A")
                 (A') (A') (A') (A") (A') (A') (A') (A") (A') (A')
                 (A") (A') (A') (A') (A") (A") (A') (A') (A') (A")
                 (A') (A") (A") (A') (A') (A') (A') (A") (A") (A')
                 (A') (A') (A") (A") (A') (A') (A") (A') (A') (A")
                 (A") (A') (A') (A") (A") (A') (A") (A') (A") (A')
                 (A") (A") (A') (A") (A') (A') (A") (A') (A') (A")
                 (A') (A') (A') (A") (A") (A') (A") (A') (A') (A")
                 (A") (A') (A") (A') (A") (A') (A") (A') (A") (A')
                 (A') (A') (A") (A') (A') (A") (A') (A') (A') (A")
                 (A') (A') (A") (A') (A") (A') (A') (A") (A') (A")
                 (A') (A") (A') (A") (A') (A") (A') (A") (A') (A")
                 (A') (A') (A") (A") (A') (A") (A') (A") (A') (A")
                 (A') (A') (A') (A') (A") (A") (A') (A') (A") (A')
                 (A') (A') (A') (A') (A") (A') (A') (A") (A') (A')
                 (A") (A') (A") (A') (A") (A') (A") (A') (A") (A')
                 (A") (A') (A') (A') (A") (A') (A") (A') (A") (A')
                 (A') (A") (A') (A') (A") (A") (A') (A") (A") (A')
                 (A') (A') (A') (A") (A') (A') (A") (A') (A") (A')
                 (A") (A') (A') (A') (A') (A") (A') (A') (A') (A")
                 (A') (A') (A') (A") (A') (A') (A') (A") (A') (A")
                 (A') (A") (A') (A") (A") (A') (A") (A") (A') (A')
                 (A') (A') (A") (A') (A") (A") (A') (A') (A") (A")
                 (A') (A') (A') (A") (A') (A') (A") (A') (A") (A')
                 (A') (A') (A') (A') (A") (A') (A') (A') (A') (A')
                 (A') (A") (A') (A') (A') (A') (A") (A') (A") (A')
                 (A') (A') (A') (A') (A') (A') (A') (A') (A') (A')
                 (A') (A') (A') (A') (A') (A') (A') (A') (A') (A')
                 (A') (A') (A') (A') (A') (A') (A') (A') (A') (A')
                 (A') (A') (A') (A') (A') (A') (A') (A') (A') (A')
                 (A') (A') (A') (A') (A') (A') (A') (A') (A') (A')
                 (A') (A')
 The electronic state of the initial guess is 1-A'.
 Integral accuracy reduced to 1.0D-05 until final iterations.
 Problem detected with inexpensive integrals.
 Switching to full accuracy and repeating last cycle.
 SCF Done:  E(RHF) =  -764.626349021     A.U. after   16 cycles
            NFock= 16  Conv=0.49D-08     -V/T= 2.0020
 ExpMin= 1.03D-01 ExpMax= 8.24D+03 ExpMxC= 2.81D+02 IAcc=3 IRadAn=         5 AccDes= 0.00D+00
 HarFok:  IExCor=  205 AccDes= 0.00D+00 IRadAn=         5 IDoV=-2 UseB2=F ITyADJ=14
 ICtDFT= 12500011 ScaDFX=  1.000000  1.000000  1.000000  1.000000
 NROrb=    748 NOA=    46 NOB=    46 NVA=   702 NVB=   702

 **** Warning!!: The largest alpha MO coefficient is  0.46874107D+02

 Semi-Direct transformation.
 ModeAB=           4 MOrb=            46 LenV=   16764004101
 LASXX=   4734617227 LTotXX=  4734617227 LenRXX=  9490610213
 LTotAB=  4755992986 MaxLAS=  9462819344 LenRXY=           0
 NonZer= 14225227440 LenScr= 28562025472 LnRSAI=  9462819344
 LnScr1= 18999857152 LExtra=           0 Total=  66515312181
 MaxDsk=          -1 SrtSym=           T ITran=            4
 JobTyp=0 Pass  1:  I=   1 to  46.
 (rs|ai) integrals will be sorted in core.
 ANorm=    0.1452369224D+01
 E2 =    -0.3114408228D+01 EUMP2 =    -0.76774075724888D+03
 CIDS: In Core Option IDoMem=           1.
 Produce multiple copies of IABC intergrals
 FoFJK:  IHMeth= 1 ICntrl=     200 DoSepK=F KAlg= 0 I1Cent=           0 FoldK=F
 IRaf= 790000000 NMat=     434 IRICut=     542 DoRegI=T DoRafI=T ISym2E=-1 IDoP0=3 IntGTp=3.
 FoFCou: FMM=F IPFlag=           0 FMFlag=      100000 FMFlg1=           0
         NFxFlg=           0 DoJE=F BraDBF=F KetDBF=F FulRan=T
         wScrn=  0.000000 ICntrl=       200 IOpCl=  0 I1Cent=           0 NGrid=           0
         NMat0=  434 NMatS0=      0 NMatT0=  217 NMatD0=  434 NMtDS0=    0 NMtDT0=    0
 Petite list used in FoFCou.
 Raff kept on since  78.05% of shell-pairs survive, threshold=   0.20 IRatSp=78.
 MP4(R+Q)=  0.11575602D+00
 E3=       -0.20325431D-01        EUMP3=      -0.76776108268D+03
 E4(DQ)=    0.34144436D-01        UMP4(DQ)=   -0.76772693824D+03
 E4(SDQ)=   0.65730317D-02        UMP4(SDQ)=  -0.76775450965D+03
 DE(Corr)=  -3.0183568     E(Corr)=     -767.64470585    
 NORM(A)=   0.14211151D+01
 DE(Corr)=  -3.1257983     E(CORR)=     -767.75214731     Delta=-1.07D-01
 NORM(A)=   0.14557146D+01
 DE(Corr)=  -3.1195915     E(CORR)=     -767.74594056     Delta= 6.21D-03
 NORM(A)=   0.14603675D+01
 DE(Corr)=  -3.1271937     E(CORR)=     -767.75354274     Delta=-7.60D-03
 NORM(A)=   0.14623092D+01
 DE(Corr)=  -3.1280793     E(CORR)=     -767.75442828     Delta=-8.86D-04
 NORM(A)=   0.14630938D+01
 DE(Corr)=  -3.1281891     E(CORR)=     -767.75453809     Delta=-1.10D-04
 NORM(A)=   0.14632756D+01
 DE(Corr)=  -3.1282023     E(CORR)=     -767.75455136     Delta=-1.33D-05
 NORM(A)=   0.14632394D+01
 DE(Corr)=  -3.1282338     E(CORR)=     -767.75458279     Delta=-3.14D-05
 NORM(A)=   0.14632669D+01
 DE(Corr)=  -3.1282099     E(CORR)=     -767.75455894     Delta= 2.39D-05
 NORM(A)=   0.14632617D+01
 DE(Corr)=  -3.1282176     E(CORR)=     -767.75456666     Delta=-7.72D-06
 NORM(A)=   0.14632619D+01
 DE(Corr)=  -3.1282146     E(CORR)=     -767.75456358     Delta= 3.08D-06
 NORM(A)=   0.14632618D+01
 DE(Corr)=  -3.1282147     E(CORR)=     -767.75456369     Delta=-1.09D-07
 NORM(A)=   0.14632612D+01
 DE(Corr)=  -3.1282147     E(CORR)=     -767.75456367     Delta= 1.75D-08
 NORM(A)=   0.14632609D+01
 Wavefunction amplitudes converged. E(Corr)=     -767.75456367    
 Largest amplitude= 4.26D-02
 Time for triples= 18790125.75 seconds.
 T4(CCSD)= -0.19144549D+00
 T5(CCSD)=  0.33335436D-02
 CCSD(T)= -0.76794267562D+03
 Discarding MO integrals.

 **********************************************************************

            Population analysis using the SCF Density.

 **********************************************************************

 Orbital symmetries:
       Occupied  (A') (A') (A') (A') (A') (A') (A') (A') (A') (A')
                 (A') (A') (A') (A') (A') (A') (A') (A') (A') (A')
                 (A') (A') (A') (A') (A') (A') (A') (A') (A') (A')
                 (A') (A') (A') (A') (A') (A') (A') (A') (A') (A')
                 (A') (A') (A') (A') (A') (A') (A') (A') (A') (A")
                 (A') (A') (A") (A') (A') (A') (A") (A') (A') (A")
                 (A") (A") (A") (A") (A") (A")
       Virtual   (A") (A") (A") (A") (A') (A') (A') (A") (A') (A')
                 (A') (A') (A') (A") (A') (A') (A") (A') (A') (A")
                 (A') (A') (A') (A') (A") (A') (A') (A') (A') (A")
                 (A') (A') (A') (A') (A") (A") (A') (A') (A") (A')
                 (A') (A") (A') (A") (A') (A') (A") (A') (A') (A")
                 (A') (A") (A') (A') (A') (A") (A') (A') (A') (A")
                 (A') (A') (A") (A") (A') (A') (A') (A') (A') (A")
                 (A') (A') (A") (A') (A') (A') (A") (A') (A') (A")
                 (A') (A') (A") (A') (A') (A') (A") (A') (A") (A')
                 (A') (A') (A") (A') (A") (A') (A') (A') (A') (A")
                 (A') (A') (A") (A") (A') (A') (A') (A") (A") (A')
                 (A") (A') (A") (A') (A") (A') (A') (A") (A') (A')
                 (A") (A") (A') (A') (A') (A") (A') (A") (A') (A')
                 (A') (A') (A') (A") (A') (A") (A') (A') (A') (A')
                 (A') (A') (A') (A') (A') (A') (A") (A') (A') (A")
                 (A') (A') (A') (A") (A") (A') (A") (A') (A') (A")
                 (A') (A") (A') (A") (A") (A') (A") (A') (A') (A')
                 (A') (A") (A') (A") (A') (A') (A") (A") (A') (A')
                 (A") (A') (A') (A") (A') (A') (A') (A") (A') (A')
                 (A") (A') (A') (A') (A") (A") (A') (A') (A') (A')
                 (A') (A") (A') (A") (A') (A') (A') (A') (A') (A")
                 (A") (A') (A') (A") (A') (A") (A') (A') (A') (A')
                 (A") (A') (A') (A') (A") (A') (A") (A') (A') (A")
                 (A') (A') (A') (A') (A") (A') (A') (A') (A') (A")
                 (A') (A') (A') (A') (A") (A') (A") (A') (A') (A')
                 (A') (A') (A') (A") (A') (A') (A') (A") (A') (A')
                 (A') (A') (A') (A') (A') (A") (A") (A') (A") (A")
                 (A') (A") (A') (A') (A') (A") (A") (A') (A") (A')
                 (A") (A") (A") (A') (A") (A") (A') (A") (A") (A')
                 (A') (A") (A') (A") (A') (A') (A') (A') (A') (A')
                 (A') (A') (A") (A") (A') (A') (A') (A') (A') (A")
                 (A') (A") (A') (A") (A') (A') (A") (A') (A") (A")
                 (A') (A') (A') (A") (A') (A') (A") (A') (A") (A')
                 (A") (A') (A') (A") (A") (A') (A") (A") (A") (A")
                 (A') (A") (A") (A') (A') (A") (A") (A") (A') (A')
                 (A") (A') (A") (A") (A') (A') (A') (A') (A') (A')
                 (A") (A') (A') (A') (A") (A") (A') (A") (A') (A")
                 (A") (A') (A') (A") (A') (A") (A") (A') (A") (A")
                 (A') (A') (A') (A") (A') (A") (A') (A') (A") (A')
                 (A") (A') (A") (A") (A') (A') (A") (A') (A') (A')
                 (A') (A") (A') (A') (A") (A') (A') (A") (A') (A')
                 (A') (A') (A") (A") (A') (A') (A") (A") (A') (A')
                 (A") (A') (A') (A') (A") (A') (A") (A') (A') (A')
                 (A') (A") (A') (A") (A") (A") (A') (A') (A") (A")
                 (A') (A") (A') (A') (A") (A') (A") (A") (A') (A")
                 (A') (A') (A') (A') (A") (A') (A") (A') (A") (A')
                 (A') (A") (A') (A") (A') (A') (A") (A') (A") (A')
                 (A") (A") (A') (A') (A") (A') (A") (A') (A") (A')
                 (A") (A') (A') (A') (A") (A') (A') (A") (A") (A')
                 (A') (A') (A") (A") (A') (A") (A') (A") (A') (A')
                 (A") (A') (A") (A") (A') (A") (A") (A') (A") (A')
                 (A') (A") (A") (A") (A') (A') (A') (A') (A") (A')
                 (A") (A') (A") (A') (A') (A') (A') (A") (A') (A')
                 (A') (A") (A') (A') (A') (A") (A') (A') (A') (A")
                 (A') (A") (A') (A") (A') (A') (A') (A") (A') (A")
                 (A') (A') (A") (A') (A') (A") (A') (A") (A') (A')
                 (A") (A') (A') (A") (A') (A") (A') (A") (A') (A')
                 (A") (A') (A') (A') (A") (A') (A') (A') (A') (A")
                 (A") (A") (A') (A') (A') (A") (A') (A') (A') (A")
                 (A') (A') (A') (A") (A') (A') (A') (A") (A") (A')
                 (A") (A") (A') (A") (A") (A") (A') (A') (A') (A')
                 (A') (A") (A') (A") (A") (A') (A') (A") (A') (A")
                 (A') (A') (A') (A") (A') (A") (A') (A') (A") (A')
                 (A') (A') (A') (A") (A') (A') (A') (A') (A') (A')
                 (A") (A') (A') (A') (A") (A') (A') (A") (A') (A')
                 (A') (A') (A') (A') (A') (A') (A') (A') (A') (A')
                 (A') (A') (A') (A') (A') (A') (A') (A') (A') (A')
                 (A') (A') (A') (A') (A') (A') (A') (A') (A') (A')
                 (A') (A') (A') (A') (A') (A') (A') (A') (A') (A')
                 (A') (A') (A') (A') (A') (A') (A') (A') (A') (A')
                 (A') (A')
 The electronic state is 1-A'.
 Alpha  occ. eigenvalues --  -11.25513 -11.25338 -11.25023 -11.24929 -11.24717
 Alpha  occ. eigenvalues --  -11.24604 -11.24580 -11.24511 -11.24431 -11.24407
 Alpha  occ. eigenvalues --  -11.24258 -11.24222 -11.24220 -11.24188 -11.24126
 Alpha  occ. eigenvalues --  -11.24066 -11.24001 -11.23976 -11.23880 -11.23006
 Alpha  occ. eigenvalues --   -1.20700  -1.16401  -1.13619  -1.09991  -1.07144
 Alpha  occ. eigenvalues --   -1.04193  -1.02565  -0.98867  -0.97917  -0.97618
 Alpha  occ. eigenvalues --   -0.88034  -0.87029  -0.82884  -0.82604  -0.80004
 Alpha  occ. eigenvalues --   -0.77632  -0.73570  -0.71399  -0.69252  -0.67290
 Alpha  occ. eigenvalues --   -0.65910  -0.64886  -0.62696  -0.61413  -0.59985
 Alpha  occ. eigenvalues --   -0.59447  -0.59055  -0.58383  -0.57519  -0.56502
 Alpha  occ. eigenvalues --   -0.55916  -0.53114  -0.51736  -0.51685  -0.49972
 Alpha  occ. eigenvalues --   -0.49296  -0.48484  -0.47521  -0.46866  -0.43817
 Alpha  occ. eigenvalues --   -0.39748  -0.36500  -0.35196  -0.29945  -0.29046
 Alpha  occ. eigenvalues --   -0.27883
 Alpha virt. eigenvalues --    0.04686   0.07660   0.11793   0.13382   0.14133
 Alpha virt. eigenvalues --    0.14467   0.14726   0.15305   0.15973   0.16324
 Alpha virt. eigenvalues --    0.17947   0.18384   0.19560   0.19644   0.20425
 Alpha virt. eigenvalues --    0.23755   0.23852   0.25558   0.27112   0.31229
 Alpha virt. eigenvalues --    0.31645   0.32828   0.34493   0.36105   0.36161
 Alpha virt. eigenvalues --    0.37284   0.37660   0.38018   0.38737   0.39767
 Alpha virt. eigenvalues --    0.39786   0.39995   0.40471   0.41099   0.41691
 Alpha virt. eigenvalues --    0.42966   0.43535   0.43705   0.44077   0.44132
 Alpha virt. eigenvalues --    0.45103   0.45553   0.46082   0.46276   0.46562
 Alpha virt. eigenvalues --    0.47926   0.48208   0.48679   0.49382   0.49518
 Alpha virt. eigenvalues --    0.50035   0.51901   0.52014   0.52203   0.52534
 Alpha virt. eigenvalues --    0.53180   0.53584   0.53796   0.54414   0.54526
 Alpha virt. eigenvalues --    0.55269   0.56294   0.56502   0.57762   0.57763
 Alpha virt. eigenvalues --    0.58427   0.58801   0.59111   0.59805   0.60030
 Alpha virt. eigenvalues --    0.60365   0.60788   0.60866   0.61129   0.61859
 Alpha virt. eigenvalues --    0.62196   0.62309   0.62734   0.63046   0.63098
 Alpha virt. eigenvalues --    0.64148   0.65129   0.66073   0.66643   0.67045
 Alpha virt. eigenvalues --    0.67648   0.68239   0.68441   0.68499   0.69479
 Alpha virt. eigenvalues --    0.70542   0.72195   0.72374   0.72618   0.73531
 Alpha virt. eigenvalues --    0.74153   0.75101   0.76601   0.77389   0.78655
 Alpha virt. eigenvalues --    0.79193   0.79462   0.80708   0.81307   0.81768
 Alpha virt. eigenvalues --    0.82606   0.84015   0.84634   0.85729   0.86558
 Alpha virt. eigenvalues --    0.86643   0.87708   0.88659   0.88698   0.89083
 Alpha virt. eigenvalues --    0.89482   0.90228   0.90358   0.91818   0.92947
 Alpha virt. eigenvalues --    0.93924   0.94839   0.94946   0.96454   0.97676
 Alpha virt. eigenvalues --    0.97845   0.98452   0.99237   0.99457   1.00137
 Alpha virt. eigenvalues --    1.00488   1.01271   1.01395   1.01992   1.02718
 Alpha virt. eigenvalues --    1.02771   1.03289   1.03312   1.03862   1.05435
 Alpha virt. eigenvalues --    1.06298   1.06917   1.06935   1.10256   1.10607
 Alpha virt. eigenvalues --    1.11110   1.11914   1.12209   1.12330   1.12869
 Alpha virt. eigenvalues --    1.13476   1.14104   1.14581   1.14583   1.15575
 Alpha virt. eigenvalues --    1.16399   1.17174   1.17557   1.18306   1.18505
 Alpha virt. eigenvalues --    1.18992   1.20554   1.20843   1.20980   1.21310
 Alpha virt. eigenvalues --    1.21366   1.23524   1.23541   1.24932   1.25526
 Alpha virt. eigenvalues --    1.26314   1.27383   1.27941   1.28403   1.28846
 Alpha virt. eigenvalues --    1.29829   1.30586   1.31097   1.31409   1.33413
 Alpha virt. eigenvalues --    1.33655   1.34380   1.35415   1.36182   1.37891
 Alpha virt. eigenvalues --    1.39439   1.40946   1.42812   1.44502   1.44687
 Alpha virt. eigenvalues --    1.45176   1.45244   1.46232   1.46904   1.47516
 Alpha virt. eigenvalues --    1.48715   1.49021   1.49402   1.50225   1.50713
 Alpha virt. eigenvalues --    1.51183   1.51369   1.52311   1.52660   1.52887
 Alpha virt. eigenvalues --    1.54456   1.55070   1.55619   1.56478   1.57022
 Alpha virt. eigenvalues --    1.58131   1.58342   1.59007   1.59128   1.59552
 Alpha virt. eigenvalues --    1.61252   1.61379   1.61979   1.64082   1.64632
 Alpha virt. eigenvalues --    1.65171   1.65414   1.65997   1.67787   1.69134
 Alpha virt. eigenvalues --    1.69895   1.70206   1.71485   1.71623   1.72051
 Alpha virt. eigenvalues --    1.73444   1.75065   1.75865   1.76925   1.76989
 Alpha virt. eigenvalues --    1.79383   1.79993   1.81866   1.83020   1.84763
 Alpha virt. eigenvalues --    1.86111   1.88085   1.89001   1.89988   1.91877
 Alpha virt. eigenvalues --    1.93086   1.94061   1.98233   2.01011   2.01927
 Alpha virt. eigenvalues --    2.05513   2.06145   2.06997   2.08065   2.09325
 Alpha virt. eigenvalues --    2.13011   2.13708   2.13971   2.17360   2.18760
 Alpha virt. eigenvalues --    2.21329   2.23076   2.24944   2.27288   2.30168
 Alpha virt. eigenvalues --    2.30323   2.33147   2.34825   2.35456   2.37234
 Alpha virt. eigenvalues --    2.37861   2.40041   2.40903   2.42473   2.42858
 Alpha virt. eigenvalues --    2.43270   2.44052   2.44827   2.48083   2.49285
 Alpha virt. eigenvalues --    2.49507   2.49952   2.51393   2.51806   2.53506
 Alpha virt. eigenvalues --    2.55599   2.56150   2.56781   2.57230   2.58348
 Alpha virt. eigenvalues --    2.60590   2.61761   2.61778   2.62994   2.66589
 Alpha virt. eigenvalues --    2.66960   2.68013   2.68191   2.70660   2.71205
 Alpha virt. eigenvalues --    2.73137   2.73784   2.74462   2.75599   2.75927
 Alpha virt. eigenvalues --    2.76598   2.77631   2.78177   2.79008   2.80548
 Alpha virt. eigenvalues --    2.80583   2.80648   2.81073   2.82031   2.82317
 Alpha virt. eigenvalues --    2.82770   2.83411   2.83843   2.84080   2.84389
 Alpha virt. eigenvalues --    2.85189   2.86676   2.87412   2.89974   2.90085
 Alpha virt. eigenvalues --    2.90479   2.90774   2.91453   2.91990   2.92646
 Alpha virt. eigenvalues --    2.92783   2.94650   2.94957   2.95617   2.96341
 Alpha virt. eigenvalues --    2.97249   2.97906   2.98453   2.99806   3.00918
 Alpha virt. eigenvalues --    3.01150   3.02213   3.02754   3.02831   3.03743
 Alpha virt. eigenvalues --    3.03744   3.04436   3.04507   3.05355   3.06140
 Alpha virt. eigenvalues --    3.06439   3.07422   3.07473   3.09529   3.10204
 Alpha virt. eigenvalues --    3.10655   3.10789   3.12350   3.13018   3.15250
 Alpha virt. eigenvalues --    3.16071   3.16312   3.17915   3.19064   3.19360
 Alpha virt. eigenvalues --    3.19859   3.20635   3.21355   3.21658   3.21782
 Alpha virt. eigenvalues --    3.23023   3.23222   3.23958   3.25317   3.25891
 Alpha virt. eigenvalues --    3.27576   3.28046   3.28057   3.28389   3.28675
 Alpha virt. eigenvalues --    3.28713   3.29681   3.29863   3.30012   3.30981
 Alpha virt. eigenvalues --    3.31849   3.32011   3.32483   3.33539   3.33545
 Alpha virt. eigenvalues --    3.34705   3.34870   3.35396   3.36083   3.36182
 Alpha virt. eigenvalues --    3.37038   3.37041   3.37401   3.37974   3.38908
 Alpha virt. eigenvalues --    3.39255   3.39407   3.40260   3.41686   3.42234
 Alpha virt. eigenvalues --    3.42348   3.43098   3.44119   3.44370   3.44951
 Alpha virt. eigenvalues --    3.45068   3.46136   3.46384   3.47096   3.47781
 Alpha virt. eigenvalues --    3.48288   3.48580   3.49262   3.49932   3.50401
 Alpha virt. eigenvalues --    3.50651   3.50981   3.52147   3.52607   3.53325
 Alpha virt. eigenvalues --    3.53771   3.54516   3.55054   3.55978   3.57061
 Alpha virt. eigenvalues --    3.58490   3.58508   3.59754   3.59932   3.61998
 Alpha virt. eigenvalues --    3.62581   3.62607   3.62862   3.63860   3.64731
 Alpha virt. eigenvalues --    3.64789   3.65253   3.65473   3.66442   3.67487
 Alpha virt. eigenvalues --    3.67593   3.69138   3.69565   3.69901   3.70142
 Alpha virt. eigenvalues --    3.70254   3.71210   3.72440   3.73114   3.74072
 Alpha virt. eigenvalues --    3.74352   3.76065   3.76241   3.78011   3.78789
 Alpha virt. eigenvalues --    3.79691   3.80269   3.80472   3.81485   3.82653
 Alpha virt. eigenvalues --    3.82977   3.83514   3.84962   3.85724   3.86958
 Alpha virt. eigenvalues --    3.87481   3.88579   3.89213   3.90556   3.91001
 Alpha virt. eigenvalues --    3.93627   3.93960   3.94487   3.94658   3.96963
 Alpha virt. eigenvalues --    3.97127   3.97259   3.98097   3.98962   3.99365
 Alpha virt. eigenvalues --    4.00275   4.01110   4.02933   4.03037   4.03685
 Alpha virt. eigenvalues --    4.04050   4.05054   4.05141   4.06236   4.06800
 Alpha virt. eigenvalues --    4.08241   4.08483   4.09625   4.10439   4.10965
 Alpha virt. eigenvalues --    4.11127   4.11683   4.12127   4.13451   4.13597
 Alpha virt. eigenvalues --    4.14894   4.15101   4.15741   4.16008   4.16458
 Alpha virt. eigenvalues --    4.17430   4.18203   4.20029   4.20303   4.20449
 Alpha virt. eigenvalues --    4.20980   4.23077   4.24093   4.25073   4.25967
 Alpha virt. eigenvalues --    4.26395   4.27122   4.27751   4.28983   4.29859
 Alpha virt. eigenvalues --    4.30834   4.31387   4.31614   4.32051   4.33554
 Alpha virt. eigenvalues --    4.34356   4.34937   4.35585   4.36420   4.37470
 Alpha virt. eigenvalues --    4.39185   4.39518   4.39719   4.39851   4.41447
 Alpha virt. eigenvalues --    4.42401   4.43720   4.44110   4.44387   4.45301
 Alpha virt. eigenvalues --    4.46011   4.47688   4.49180   4.49752   4.50194
 Alpha virt. eigenvalues --    4.50958   4.51300   4.51626   4.52027   4.53965
 Alpha virt. eigenvalues --    4.54155   4.55006   4.55373   4.55611   4.57721
 Alpha virt. eigenvalues --    4.57865   4.59235   4.60348   4.60479   4.61078
 Alpha virt. eigenvalues --    4.62523   4.62666   4.63512   4.63866   4.64502
 Alpha virt. eigenvalues --    4.65236   4.65520   4.66055   4.67281   4.68361
 Alpha virt. eigenvalues --    4.68691   4.69483   4.69856   4.70933   4.70956
 Alpha virt. eigenvalues --    4.71565   4.72365   4.73256   4.75867   4.77207
 Alpha virt. eigenvalues --    4.78320   4.79494   4.81196   4.83006   4.84052
 Alpha virt. eigenvalues --    4.84857   4.87203   4.89933   4.89957   4.91959
 Alpha virt. eigenvalues --    4.94628   4.95324   4.96699   4.99299   4.99674
 Alpha virt. eigenvalues --    5.01014   5.01645   5.02842   5.03331   5.05498
 Alpha virt. eigenvalues --    5.06693   5.06834   5.08407   5.09443   5.10410
 Alpha virt. eigenvalues --    5.13974   5.14312   5.14834   5.15164   5.17278
 Alpha virt. eigenvalues --    5.18971   5.20316   5.22589   5.24162   5.24932
 Alpha virt. eigenvalues --    5.25404   5.27547   5.28873   5.29295   5.30736
 Alpha virt. eigenvalues --    5.33130   5.34041   5.34865   5.35296   5.36706
 Alpha virt. eigenvalues --    5.38588   5.39053   5.41198   5.42128   5.42301
 Alpha virt. eigenvalues --    5.44160   5.45709   5.47628   5.53215   5.55687
 Alpha virt. eigenvalues --    5.56467   5.59140   5.62161   5.63735   5.65513
 Alpha virt. eigenvalues --    5.65554   5.69412   5.71127   5.74534   5.77803
 Alpha virt. eigenvalues --    5.79969   5.81332   5.85387   5.86319   5.89252
 Alpha virt. eigenvalues --    5.92512   5.97552   5.98956   6.01404   6.02852
 Alpha virt. eigenvalues --    6.07929   6.15215   6.18556   6.20159   6.21874
 Alpha virt. eigenvalues --    6.25717   6.27888   6.31099   6.34099   6.36693
 Alpha virt. eigenvalues --    6.42809   6.44741   6.46752   6.54923   6.60631
 Alpha virt. eigenvalues --    6.67231   6.70423   6.79395   6.84905   6.96587
 Alpha virt. eigenvalues --    7.15667   7.39831   8.06865   9.98342  10.99851
 Alpha virt. eigenvalues --   11.99339  12.66987  13.00539  13.15009  13.25665
 Alpha virt. eigenvalues --   13.47132  13.48581  13.62543  13.69319  14.04777
 Alpha virt. eigenvalues --   14.32372  14.75366  15.45977  15.92462  16.14556
 Alpha virt. eigenvalues --   16.16584  16.69892
          Condensed to atoms (all electrons):
 Mulliken charges:
               1
     1  C   -0.161691
     2  C   -0.166483
     3  C   -0.100118
     4  C   -0.018065
     5  C   -0.017202
     6  C   -0.108351
     7  C   -0.029684
     8  C   -0.121022
     9  C   -0.162298
    10  C   -0.166993
    11  C    0.095085
    12  C   -0.026717
    13  C   -0.076534
    14  C   -0.135595
    15  C    0.100714
    16  C   -0.162875
    17  C   -0.166459
    18  C   -0.172136
    19  C   -0.143819
    20  C    0.020528
    21  H    0.148223
    22  H    0.148274
    23  H    0.139542
    24  H    0.140889
    25  H    0.141745
    26  H    0.146012
    27  H    0.141557
    28  H    0.133570
    29  H    0.137899
    30  H    0.149824
    31  H    0.148647
    32  H    0.143533
 Sum of Mulliken charges =  -0.00000
 Mulliken charges with hydrogens summed into heavy atoms:
               1
     1  C   -0.013469
     2  C   -0.018210
     3  C    0.039424
     4  C   -0.018065
     5  C   -0.017202
     6  C    0.032538
     7  C   -0.029684
     8  C    0.020724
     9  C   -0.016286
    10  C   -0.025436
    11  C    0.095085
    12  C   -0.026717
    13  C   -0.076534
    14  C   -0.002024
    15  C    0.100714
    16  C   -0.024976
    17  C   -0.016635
    18  C   -0.023488
    19  C   -0.000286
    20  C    0.020528
 Electronic spatial extent (au):  <R**2>=           5444.4667
 Charge=             -0.0000 electrons
 Dipole moment (field-independent basis, Debye):
    X=             -0.2293    Y=             -0.1402    Z=              0.0000  Tot=              0.2687
 Unable to Open any file for archive entry.
 1\1\GINC-NODE01\SP\RCCSD(T)-FC\CC-pVTZ\C20H12\XUHJ\08-Aug-2025\0\\#T C
 CSD(T)/cc-pVTZ symm=veryloose geom=allcheck\\c1ccc2c(c1)-c1cccc3c1c-2c
 c1ccccc13\\0,1\C,0,4.670604,0.619057,0.\C,0,4.469251,-0.767691,0.\C,0,
 3.173461,-1.30264,0.\C,0,2.083889,-0.433705,0.\C,0,2.289069,0.980934,0
 .\C,0,3.581522,1.502148,0.\C,0,0.967793,1.63941,0.\C,0,0.530726,2.9554
 64,0.\C,0,-0.864511,3.200674,0.\C,0,-1.80231,2.170407,0.\C,0,-1.382603
 ,0.814325,0.\C,0,0.,0.604131,0.\C,0,0.631113,-0.685129,0.\C,0,-0.15667
 4,-1.802495,0.\C,0,-1.593925,-1.667225,0.\C,0,-2.412,-2.82363,0.\C,0,-
 3.793465,-2.730049,0.\C,0,-4.408837,-1.462981,0.\C,0,-3.634437,-0.3123
 ,0.\C,0,-2.223847,-0.374272,0.\H,0,5.689557,1.017467,0.\H,0,5.332317,-
 1.439992,0.\H,0,3.023108,-2.386272,0.\H,0,3.747478,2.583442,0.\H,0,1.2
 32579,3.794354,0.\H,0,-1.217711,4.236271,0.\H,0,-2.86534,2.422691,0.\H
 ,0,0.269906,-2.810242,0.\H,0,-1.92808,-3.805327,0.\H,0,-4.405504,-3.63
 6675,0.\H,0,-5.49998,-1.385022,0.\H,0,-4.127246,0.662711,0.\\Version=E
 S64L-G16RevC.01\State=1-A'\HF=-764.626349\MP2=-767.7407572\MP3=-767.76
 10827\MP4D=-767.8426943\MP4DQ=-767.7269382\MP4SDQ=-767.7545096\CCSD=-7
 67.7545637\CCSD(T)=-767.9426756\RMSD=4.943e-09\PG=CS [SG(C20H12)]\\@
 The archive entry for this job was punched.


 A great many people think they are thinking when they
 are merely rearranging their prejudices.
                               -- William James
 Job cpu time:     234 days 18 hours 27 minutes 20.0 seconds.
 Elapsed time:       7 days  8 hours 43 minutes 45.3 seconds.
 File lengths (MBytes):  RWF= 517443 Int=      0 D2E=      0 Chk=     42 Scr=      1
 Normal termination of Gaussian 16 at Fri Aug  8 01:56:36 2025.
