 Entering Gaussian System, Link 0=g16
 Initial command:
 /opt/g16/l1.exe "/tmp/Gau-3977510.inp" -scrdir="/tmp/"
 Entering Link 1 = /opt/g16/l1.exe PID=   3977511.
  
 Copyright (c) 1988-2019, Gaussian, Inc.  All Rights Reserved.
  
 This is part of the Gaussian(R) 16 program.  It is based on
 the Gaussian(R) 09 system (copyright 2009, Gaussian, Inc.),
 the Gaussian(R) 03 system (copyright 2003, Gaussian, Inc.),
 the Gaussian(R) 98 system (copyright 1998, Gaussian, Inc.),
 the Gaussian(R) 94 system (copyright 1995, Gaussian, Inc.),
 the Gaussian 92(TM) system (copyright 1992, Gaussian, Inc.),
 the Gaussian 90(TM) system (copyright 1990, Gaussian, Inc.),
 the Gaussian 88(TM) system (copyright 1988, Gaussian, Inc.),
 the Gaussian 86(TM) system (copyright 1986, Carnegie Mellon
 University), and the Gaussian 82(TM) system (copyright 1983,
 Carnegie Mellon University). Gaussian is a federally registered
 trademark of Gaussian, Inc.
  
 This software contains proprietary and confidential information,
 including trade secrets, belonging to Gaussian, Inc.
  
 This software is provided under written license and may be
 used, copied, transmitted, or stored only in accord with that
 written license.
  
 The following legend is applicable only to US Government
 contracts under FAR:
  
                    RESTRICTED RIGHTS LEGEND
  
 Use, reproduction and disclosure by the US Government is
 subject to restrictions as set forth in subparagraphs (a)
 and (c) of the Commercial Computer Software - Restricted
 Rights clause in FAR 52.227-19.
  
 Gaussian, Inc.
 340 Quinnipiac St., Bldg. 40, Wallingford CT 06492
  
  
 ---------------------------------------------------------------
 Warning -- This program may not be used in any manner that
 competes with the business of Gaussian, Inc. or will provide
 assistance to any competitor of Gaussian, Inc.  The licensee
 of this program is prohibited from giving any competitor of
 Gaussian, Inc. access to this program.  By using this program,
 the user acknowledges that Gaussian, Inc. is engaged in the
 business of creating and licensing software in the field of
 computational chemistry and represents and warrants to the
 licensee that it is not a competitor of Gaussian, Inc. and that
 it will not use this program in any manner prohibited above.
 ---------------------------------------------------------------
  

 Cite this work as:
 Gaussian 16, Revision C.01,
 M. J. Frisch, G. W. Trucks, H. B. Schlegel, G. E. Scuseria, 
 M. A. Robb, J. R. Cheeseman, G. Scalmani, V. Barone, 
 G. A. Petersson, H. Nakatsuji, X. Li, M. Caricato, A. V. Marenich, 
 J. Bloino, B. G. Janesko, R. Gomperts, B. Mennucci, H. P. Hratchian, 
 J. V. Ortiz, A. F. Izmaylov, J. L. Sonnenberg, D. Williams-Young, 
 F. Ding, F. Lipparini, F. Egidi, J. Goings, B. Peng, A. Petrone, 
 T. Henderson, D. Ranasinghe, V. G. Zakrzewski, J. Gao, N. Rega, 
 G. Zheng, W. Liang, M. Hada, M. Ehara, K. Toyota, R. Fukuda, 
 J. Hasegawa, M. Ishida, T. Nakajima, Y. Honda, O. Kitao, H. Nakai, 
 T. Vreven, K. Throssell, J. A. Montgomery, Jr., J. E. Peralta, 
 F. Ogliaro, M. J. Bearpark, J. J. Heyd, E. N. Brothers, K. N. Kudin, 
 V. N. Staroverov, T. A. Keith, R. Kobayashi, J. Normand, 
 K. Raghavachari, A. P. Rendell, J. C. Burant, S. S. Iyengar, 
 J. Tomasi, M. Cossi, J. M. Millam, M. Klene, C. Adamo, R. Cammi, 
 J. W. Ochterski, R. L. Martin, K. Morokuma, O. Farkas, 
 J. B. Foresman, and D. J. Fox, Gaussian, Inc., Wallingford CT, 2019.
 
 ******************************************
 Gaussian 16:  ES64L-G16RevC.01  3-Jul-2019
                12-Aug-2025 
 ******************************************
 %nprocshared=32
 Will use up to   32 processors via shared memory.
 %mem=153600MB
 %chk=RXUSYFJGDZFVND-UHFFFAOYSA-N-1.chk
 ---------------------------------
 #T CCSD(T)/cc-pVDZ symm=veryloose
 ---------------------------------
 --------------------------------------
 c1ccc2c(c1)cc1ccc3c4ccccc4cc4ccc2c1c43
 --------------------------------------
 Symbolic Z-matrix:
 Charge =  0 Multiplicity = 1
 C                    -1.05582  -5.72738   0. 
 C                    -2.30926  -5.06321   0. 
 C                    -2.37231  -3.68569   0. 
 C                    -1.19403  -2.88537   0. 
 C                     0.07408  -3.56459   0. 
 C                     0.10558  -4.99065   0. 
 C                     1.26738  -2.81325   0. 
 C                     1.2561   -1.42251   0. 
 C                     2.47008  -0.65715   0. 
 C                     2.45267   0.70562   0. 
 C                     1.22014   1.44726   0. 
 C                     1.19403   2.88537   0. 
 C                     2.37231   3.68569   0. 
 C                     2.30926   5.06321   0. 
 C                     1.05582   5.72738   0. 
 C                    -0.10558   4.99065   0. 
 C                    -0.07408   3.56459   0. 
 C                    -1.26738   2.81325   0. 
 C                    -1.2561    1.42251   0. 
 C                    -2.47008   0.65715   0. 
 C                    -2.45267  -0.70562   0. 
 C                    -1.22014  -1.44726   0. 
 C                     0.       -0.71855   0. 
 C                     0.        0.71855   0. 
 H                    -1.01778  -6.82062   0. 
 H                    -3.23336  -5.64858   0. 
 H                    -3.3531   -3.20835   0. 
 H                     1.08016  -5.48837   0. 
 H                     2.22598  -3.3411    0. 
 H                     3.42233  -1.1959    0. 
 H                     3.40209   1.24194   0. 
 H                     3.3531    3.20835   0. 
 H                     3.23336   5.64858   0. 
 H                     1.01778   6.82062   0. 
 H                    -1.08016   5.48837   0. 
 H                    -2.22598   3.3411    0. 
 H                    -3.42233   1.1959    0. 
 H                    -3.40209  -1.24194   0. 
 
                    Distance matrix (angstroms):
                    1          2          3          4          5
     1  C    0.000000
     2  C    1.418527   0.000000
     3  C    2.429327   1.378957   0.000000
     4  C    2.845369   2.446772   1.424377   0.000000
     5  C    2.440151   2.815338   2.449382   1.438555   0.000000
     6  C    1.375366   2.415927   2.800511   2.474106   1.426409
     7  C    3.726851   4.225472   3.742791   2.462467   1.410134
     8  C    4.886394   5.095720   4.276364   2.853606   2.446560
     9  C    6.175696   6.500413   5.711461   4.288435   3.767496
    10  C    7.327551   7.480324   6.524109   5.117970   4.887984
    11  C    7.526982   7.405591   6.265210   4.959828   5.141215
    12  C    8.901761   8.686363   7.476472   6.245343   6.546473
    13  C   10.017885   9.922714   8.766337   7.476472   7.605817
    14  C   11.303120  11.129909   9.922714   8.686363   8.912626
    15  C   11.647774  11.303120  10.017885   8.901761   9.343691
    16  C   10.760074  10.292533   8.967552   7.950878   8.557129
    17  C    9.343691   8.912626   7.605817   6.546473   7.130721
    18  C    8.543254   7.945068   6.592203   5.699096   6.517392
    19  C    7.152699   6.570671   5.228737   4.308332   5.161451
    20  C    6.539296   5.722619   4.343944   3.765339   4.929084
    21  C    5.212413   4.359945   2.981154   2.517037   3.815514
    22  C    4.283275   3.776407   2.517554   1.438349   2.481550
    23  C    5.118901   4.920234   3.798918   2.474030   2.847005
    24  C    6.531829   6.225863   5.002518   3.796572   4.283782
    25  H    1.093897   2.180917   3.415041   3.939190   3.434218
    26  H    2.178965   1.093907   2.143439   3.434265   3.909240
    27  H    3.409247   2.128399   1.090778   2.183090   3.445640
    28  H    2.149317   3.415980   3.894766   3.456523   2.170974
    29  H    4.057661   4.851191   4.611187   3.450245   2.163481
    30  H    6.370886   6.914271   6.306894   4.915802   4.101401
    31  H    8.273111   8.507307   7.591124   6.177295   5.846226
    32  H    9.964232  10.024018   8.961480   7.603279   7.524941
    33  H   12.157694  12.060800  10.888163   9.614056   9.739791
    34  H   12.718178  12.340761  11.039710   9.954812  10.427996
    35  H   11.215776  10.622919   9.264611   8.374514   9.126245
    36  H    9.143664   8.404717   7.028312   6.311406   7.278655
    37  H    7.316569   6.357307   4.993244   4.649957   5.906535
    38  H    5.062031   3.974466   2.651863   2.752524   4.180723
                    6          7          8          9         10
     6  C    0.000000
     7  C    2.467963   0.000000
     8  C    3.749039   1.390785   0.000000
     9  C    4.936605   2.468857   1.435110   0.000000
    10  C    6.160870   3.713135   2.441462   1.362884   0.000000
    11  C    6.533677   4.260774   2.869998   2.447633   1.438455
    12  C    7.950878   5.699096   4.308332   3.765339   2.517037
    13  C    8.967552   6.592203   5.228737   4.343944   2.981154
    14  C   10.292533   7.945068   6.570671   5.722619   4.359945
    15  C   10.760074   8.543254   7.152699   6.539296   5.212413
    16  C    9.983537   7.923759   6.556131   6.207394   4.990604
    17  C    8.557129   6.517392   5.161451   4.929084   3.815514
    18  C    7.923759   6.171108   4.930482   5.100229   4.275612
    19  C    6.556131   4.930482   3.795429   4.267248   3.777412
    20  C    6.207394   5.100229   4.267248   5.112006   4.922986
    21  C    4.990604   4.275612   3.777412   4.922986   5.104300
    22  C    3.783274   2.837902   2.476357   3.773855   4.257273
    23  C    4.273406   2.448271   1.439910   2.470844   2.836165
    24  C    5.710178   3.752317   2.482323   2.827341   2.452700
    25  H    2.147256   4.613124   5.857475   7.081910   8.287836
    26  H    3.403147   5.319374   6.165617   7.579154   8.526824
    27  H    3.890892   4.637339   4.943063   6.357517   7.001862
    28  H    1.094317   2.681659   4.069660   5.027178   6.344231
    29  H    2.686473   1.094323   2.149802   2.695022   4.053062
    30  H    5.039937   2.694372   2.178057   1.094088   2.134486
    31  H    7.050682   4.582744   3.421196   2.115462   1.090429
    32  H    8.818733   6.372594   5.083537   3.965079   2.659784
    33  H   11.089463   8.687211   7.342336   6.351757   5.004228
    34  H   11.846441   9.637102   8.246574   7.617494   6.281089
    35  H   10.545893   8.627160   7.295094   7.097300   5.946054
    36  H    8.651835   7.076696   5.900582   6.167580   5.369871
    37  H    7.121770   6.169822   5.361321   6.176919   5.895419
    38  H    5.133868   4.926759   4.661681   5.901214   6.170179
                   11         12         13         14         15
    11  C    0.000000
    12  C    1.438349   0.000000
    13  C    2.517554   1.424377   0.000000
    14  C    3.776407   2.446772   1.378957   0.000000
    15  C    4.283275   2.845369   2.429327   1.418527   0.000000
    16  C    3.783274   2.474106   2.800511   2.415927   1.375366
    17  C    2.481550   1.438555   2.449382   2.815338   2.440151
    18  C    2.837902   2.462467   3.742791   4.225472   3.726851
    19  C    2.476357   2.853606   4.276364   5.095720   4.886394
    20  C    3.773855   4.288435   5.711461   6.500413   6.175696
    21  C    4.257273   5.117970   6.524109   7.480324   7.327551
    22  C    3.785919   4.959828   6.265210   7.405591   7.526982
    23  C    2.485853   3.796572   5.002518   6.225863   6.531829
    24  C    1.421180   2.474030   3.798918   4.920234   5.118901
    25  H    8.565397   9.954812  11.039710  12.340761  12.718178
    26  H    8.377622   9.614056  10.888163  12.060800  12.157694
    27  H    6.526040   7.603279   8.961480  10.024018   9.964232
    28  H    6.937040   8.374514   9.264611  10.622919  11.215776
    29  H    4.892861   6.311406   7.028312   8.404717   9.143664
    30  H    3.440341   4.649957   4.993244   6.357307   7.316569
    31  H    2.191588   2.752524   2.651863   3.974466   5.062031
    32  H    2.766038   2.183090   1.090778   2.128399   3.409247
    33  H    4.658770   3.434265   2.143439   1.093907   2.178965
    34  H    5.377166   3.939190   3.415041   2.180917   1.093897
    35  H    4.649941   3.456523   3.894766   3.415980   2.149317
    36  H    3.932224   3.450245   4.611187   4.851191   4.057661
    37  H    4.649269   4.915802   6.306894   6.914271   6.370886
    38  H    5.347592   6.177295   7.591124   8.507307   8.273111
                   16         17         18         19         20
    16  C    0.000000
    17  C    1.426409   0.000000
    18  C    2.467963   1.410134   0.000000
    19  C    3.749039   2.446560   1.390785   0.000000
    20  C    4.936605   3.767496   2.468857   1.435110   0.000000
    21  C    6.160870   4.887984   3.713135   2.441462   1.362884
    22  C    6.533677   5.141215   4.260774   2.869998   2.447633
    23  C    5.710178   4.283782   3.752317   2.482323   2.827341
    24  C    4.273406   2.847005   2.448271   1.439910   2.470844
    25  H   11.846441  10.427996   9.637102   8.246574   7.617494
    26  H   11.089463   9.739791   8.687211   7.342336   6.351757
    27  H    8.818733   7.524941   6.372594   5.083537   3.965079
    28  H   10.545893   9.126245   8.627160   7.295094   7.097300
    29  H    8.651835   7.278655   7.076696   5.900582   6.167580
    30  H    7.121770   5.906535   6.169822   5.361321   6.176919
    31  H    5.133868   4.180723   4.926759   4.661681   5.901214
    32  H    3.890892   3.445640   4.637339   4.943063   6.357517
    33  H    3.403147   3.909240   5.319374   6.165617   7.579154
    34  H    2.147256   3.434218   4.613124   5.857475   7.081910
    35  H    1.094317   2.170974   2.681659   4.069660   5.027178
    36  H    2.686473   2.163481   1.094323   2.149802   2.695022
    37  H    5.039937   4.101401   2.694372   2.178057   1.094088
    38  H    7.050682   5.846226   4.582744   3.421196   2.115462
                   21         22         23         24         25
    21  C    0.000000
    22  C    1.438455   0.000000
    23  C    2.452700   1.421180   0.000000
    24  C    2.836165   2.485853   1.437100   0.000000
    25  H    6.281089   5.377166   6.186363   7.607555   0.000000
    26  H    5.004228   4.658770   5.895744   7.141073   2.506489
    27  H    2.659784   2.766038   4.176407   5.163703   4.301412
    28  H    5.946054   4.649941   4.890595   6.300206   2.485205
    29  H    5.369871   3.932224   3.439878   4.629875   4.757000
    30  H    5.895419   4.649269   3.455461   3.921412   7.166031
    31  H    6.170179   5.347592   3.926539   3.442111   9.194563
    32  H    7.001862   6.526040   5.163703   4.176407  10.940054
    33  H    8.526824   8.377622   7.141073   5.895744  13.173950
    34  H    8.287836   8.565397   7.607555   6.186363  13.792270
    35  H    6.344231   6.937040   6.300206   4.890595  12.309143
    36  H    4.053062   4.892861   4.629875   3.439878  10.233288
    37  H    2.134486   3.440341   3.921412   3.455461   8.369373
    38  H    1.090429   2.191588   3.442111   3.926539   6.066843
                   26         27         28         29         30
    26  H    0.000000
    27  H    2.443159   0.000000
    28  H    4.316499   4.985204   0.000000
    29  H    5.926966   5.580660   2.433861   0.000000
    30  H    8.007782   7.067983   4.889891   2.456240   0.000000
    31  H    9.566001   8.089351   7.119575   4.731535   2.437922
    32  H   11.037511   9.281549   8.988838   6.645727   4.404798
    33  H   13.017073  11.037511  11.343184   9.045941   6.847085
    34  H   13.173950  10.940054  12.309143  10.233288   8.369373
    35  H   11.343184   8.988838  11.187304   9.428154   8.059275
    36  H    9.045941   6.645727   9.428154   8.029431   7.244848
    37  H    6.847085   4.404798   8.059275   7.244848   7.250525
    38  H    4.409868   1.967026   6.174362   6.006801   6.824573
                   31         32         33         34         35
    31  H    0.000000
    32  H    1.967026   0.000000
    33  H    4.409868   2.443159   0.000000
    34  H    6.066843   4.301412   2.506489   0.000000
    35  H    6.174362   4.985204   4.316499   2.485205   0.000000
    36  H    6.006801   5.580660   5.926966   4.757000   2.433861
    37  H    6.824573   7.067983   8.007782   7.166031   4.889891
    38  H    7.243370   8.089351   9.566001   9.194563   7.119575
                   36         37         38
    36  H    0.000000
    37  H    2.456240   0.000000
    38  H    4.731535   2.437922   0.000000
 Framework group  C2H[SGH(C24H14)]
 Deg. of freedom    37
                         Standard orientation:                         
 ---------------------------------------------------------------------
 Center     Atomic      Atomic             Coordinates (Angstroms)
 Number     Number       Type             X           Y           Z
 ---------------------------------------------------------------------
      1          6           0        1.102262    5.718625    0.000000
      2          6           0        2.350263    5.044302    0.000000
      3          6           0        2.402137    3.666320    0.000000
      4          6           0        1.217404    2.875587    0.000000
      5          6           0       -0.045152    3.565075    0.000000
      6          6           0       -0.065083    4.991344    0.000000
      7          6           0       -1.244511    2.823444    0.000000
      8          6           0       -1.244511    1.432659    0.000000
      9          6           0       -2.464667    0.677174    0.000000
     10          6           0       -2.458311   -0.685696    0.000000
     11          6           0       -1.231841   -1.437311    0.000000
     12          6           0       -1.217404   -2.875587    0.000000
     13          6           0       -2.402137   -3.666320    0.000000
     14          6           0       -2.350263   -5.044302    0.000000
     15          6           0       -1.102262   -5.718625    0.000000
     16          6           0        0.065083   -4.991344    0.000000
     17          6           0        0.045152   -3.565075    0.000000
     18          6           0        1.244511   -2.823444    0.000000
     19          6           0        1.244511   -1.432659    0.000000
     20          6           0        2.464667   -0.677174    0.000000
     21          6           0        2.458311    0.685696    0.000000
     22          6           0        1.231841    1.437311    0.000000
     23          6           0        0.005830    0.718526    0.000000
     24          6           0       -0.005830   -0.718526    0.000000
     25          1           0        1.073090    6.812133    0.000000
     26          1           0        3.279090    5.622154    0.000000
     27          1           0        3.379020    3.181040    0.000000
     28          1           0       -1.035593    5.496953    0.000000
     29          1           0       -2.198801    3.359050    0.000000
     30          1           0       -3.412515    1.223631    0.000000
     31          1           0       -3.412052   -1.214291    0.000000
     32          1           0       -3.379020   -3.181040    0.000000
     33          1           0       -3.279090   -5.622154    0.000000
     34          1           0       -1.073090   -6.812133    0.000000
     35          1           0        1.035593   -5.496953    0.000000
     36          1           0        2.198801   -3.359050    0.000000
     37          1           0        3.412515   -1.223631    0.000000
     38          1           0        3.412052    1.214291    0.000000
 ---------------------------------------------------------------------
 Rotational constants (GHZ):           0.7506440           0.1410958           0.1187709
   406 basis functions,   890 primitive gaussians,   430 cartesian basis functions
    79 alpha electrons       79 beta electrons
       nuclear repulsion energy      1770.4964758442 Hartrees.
 NAtoms=   38 NActive=   38 NUniq=   19 SFac= 4.00D+00 NAtFMM=   60 NAOKFM=F Big=F
 ExpMin= 1.22D-01 ExpMax= 6.67D+03 ExpMxC= 2.28D+02 IAcc=3 IRadAn=         5 AccDes= 0.00D+00
 Harris functional with IExCor=  205 and IRadAn=       5 diagonalized for initial guess.
 HarFok:  IExCor=  205 AccDes= 0.00D+00 IRadAn=         5 IDoV= 1 UseB2=F ITyADJ=14
 ICtDFT=  3500011 ScaDFX=  1.000000  1.000000  1.000000  1.000000
 FoFCou: FMM=F IPFlag=           0 FMFlag=      100000 FMFlg1=           0
         NFxFlg=           0 DoJE=T BraDBF=F KetDBF=T FulRan=T
         wScrn=  0.000000 ICntrl=       500 IOpCl=  0 I1Cent=   200000004 NGrid=           0
         NMat0=    1 NMatS0=      1 NMatT0=    0 NMatD0=    1 NMtDS0=    0 NMtDT0=    0
 Petite list used in FoFCou.
 Initial guess orbital symmetries:
       Occupied  (AG) (BU) (BU) (AG) (AG) (BU) (AG) (BU) (BU) (AG)
                 (BU) (AG) (AG) (BU) (BU) (AG) (BU) (AG) (AG) (BU)
                 (AG) (BU) (AG) (BU) (AG) (BU) (AG) (BU) (BU) (AG)
                 (AG) (BU) (AG) (AG) (BU) (BU) (AG) (BU) (AG) (BU)
                 (AG) (BU) (BU) (BU) (AG) (AG) (AG) (AG) (BU) (AG)
                 (BU) (BU) (AG) (BU) (AG) (AG) (BU) (AG) (BU) (AU)
                 (BU) (AG) (BU) (BG) (BU) (AG) (AU) (AG) (BG) (BU)
                 (AG) (BG) (AU) (AU) (BG) (AU) (AU) (BG) (BG)
       Virtual   (AU) (AU) (BG) (BG) (AU) (BG) (BG) (AU) (AU) (BG)
                 (AG) (BU) (BU) (AG) (AG) (BU) (AU) (BU) (AG) (BU)
                 (AG) (BU) (AG) (BU) (BG) (BU) (BU) (AG) (BU) (AG)
                 (AG) (AG) (AG) (BU) (BU) (AG) (BU) (AG) (BU) (AG)
                 (BU) (BU) (AG) (AG) (BU) (AG) (BU) (AG) (BU) (AU)
                 (BU) (AG) (AG) (BG) (BU) (BU) (BG) (AG) (AU) (BU)
                 (AG) (BU) (AG) (AU) (AG) (BU) (AG) (BG) (BU) (AG)
                 (BU) (AG) (BU) (AG) (BG) (AU) (AG) (BU) (AG) (AU)
                 (BU) (BG) (BU) (AU) (AG) (BU) (BG) (BG) (AU) (BG)
                 (BU) (AU) (AG) (BU) (AU) (AG) (AG) (BU) (AG) (BG)
                 (BU) (BG) (BU) (AG) (AU) (BU) (AG) (AU) (AG) (BU)
                 (BG) (AU) (BG) (AU) (BU) (AG) (BU) (AG) (BG) (BG)
                 (AG) (AU) (AG) (BU) (BU) (AG) (AU) (BU) (BG) (BU)
                 (AG) (BG) (AG) (AU) (BU) (AU) (AG) (BU) (BG) (AU)
                 (AG) (BG) (BU) (BG) (AU) (AG) (BU) (AU) (BU) (BG)
                 (AG) (BG) (AG) (AU) (BU) (AU) (BU) (AG) (AG) (BU)
                 (BU) (AG) (AG) (AG) (BU) (BU) (AG) (BG) (BU) (AG)
                 (BG) (AU) (BU) (AU) (BU) (BU) (AG) (AG) (AU) (BU)
                 (BG) (AG) (AG) (BU) (AG) (BU) (AG) (AU) (BG) (BG)
                 (AG) (BU) (BG) (AU) (BU) (AG) (AG) (BU) (AU) (AG)
                 (BU) (BU) (BG) (AG) (AG) (BU) (BU) (BG) (BG) (BU)
                 (AU) (AG) (AG) (BU) (AG) (AU) (AG) (BG) (AU) (BU)
                 (BU) (BG) (AU) (BU) (AU) (AG) (BG) (AG) (BU) (AG)
                 (AU) (BU) (BG) (BU) (AG) (BG) (AG) (BU) (AG) (BG)
                 (AU) (BU) (AG) (AU) (AG) (BU) (BU) (BG) (BU) (AG)
                 (AU) (BU) (AG) (AG) (BU) (AU) (AG) (AU) (BU) (BU)
                 (AG) (AG) (BG) (BU) (BU) (BG) (AG) (AG) (BU) (BG)
                 (BU) (AG) (AU) (BG) (AU) (BU) (AG) (AG) (BU) (BU)
                 (AG) (AU) (BU) (AG) (BU) (BG) (AG) (AG) (BU) (AG)
                 (BU) (BG) (AU) (AG) (BU) (AG) (BU) (AG) (BU) (BU)
                 (BU) (AG) (AG) (BU) (AG) (BU) (AG) (BU) (AG) (BU)
                 (AG) (BU) (AG) (AG) (BU) (AG) (BU) (BU) (AG) (AG)
                 (BU) (BU) (AG) (BU) (AG) (AG) (BU)
 The electronic state of the initial guess is 1-AG.
 Integral accuracy reduced to 1.0D-05 until final iterations.
 Initial convergence to 1.0D-05 achieved.  Increase integral accuracy.
 SCF Done:  E(RHF) =  -917.119585382     A.U. after   16 cycles
            NFock= 16  Conv=0.96D-08     -V/T= 2.0012
 ExpMin= 1.22D-01 ExpMax= 6.67D+03 ExpMxC= 2.28D+02 IAcc=3 IRadAn=         5 AccDes= 0.00D+00
 HarFok:  IExCor=  205 AccDes= 0.00D+00 IRadAn=         5 IDoV=-2 UseB2=F ITyADJ=14
 ICtDFT= 12500011 ScaDFX=  1.000000  1.000000  1.000000  1.000000
 GSVD:  LWork=        -768 too small for GESVD, short by        3240 words or        3240 for optimal perf.
 NROrb=    382 NOA=    55 NOB=    55 NVA=   327 NVB=   327

 **** Warning!!: The largest alpha MO coefficient is  0.23869152D+02

 Semi-Direct transformation.
 ModeAB=           4 MOrb=            55 LenV=   20128734640
 LASXX=    361370553 LTotXX=   361370553 LenRXX=   726218029
 LTotAB=   364847476 MaxLAS=   717617560 LenRXY=           0
 NonZer=  1087588582 LenScr=  1637780480 LnRSAI=   717617560
 LnScr1=  1080647680 LExtra=           0 Total=   4162263749
 MaxDsk=          -1 SrtSym=           T ITran=            4
 JobTyp=0 Pass  1:  I=   1 to  55.
 (rs|ai) integrals will be sorted in core.
 ANorm=    0.1489496342D+01
 E2 =    -0.3100486991D+01 EUMP2 =    -0.92022007237330D+03
 CIDS: In Core Option IDoMem=           1.
 Produce multiple copies of IABC intergrals
 MP4(R+Q)=  0.10365429D+00
 E3=       -0.54874110D-01        EUMP3=      -0.92027494648D+03
 E4(DQ)=    0.15290857D-01        UMP4(DQ)=   -0.92025965563D+03
 E4(SDQ)=  -0.11338996D-01        UMP4(SDQ)=  -0.92028628548D+03
 DE(Corr)=  -3.0515254     E(Corr)=     -920.17111075    
 NORM(A)=   0.14682506D+01
 DE(Corr)=  -3.1613184     E(CORR)=     -920.28090381     Delta=-1.10D-01
 NORM(A)=   0.15088581D+01
 DE(Corr)=  -3.1594860     E(CORR)=     -920.27907140     Delta= 1.83D-03
 NORM(A)=   0.15144622D+01
 DE(Corr)=  -3.1687111     E(CORR)=     -920.28829644     Delta=-9.23D-03
 NORM(A)=   0.15169867D+01
 DE(Corr)=  -3.1698551     E(CORR)=     -920.28944048     Delta=-1.14D-03
 NORM(A)=   0.15180789D+01
 DE(Corr)=  -3.1700461     E(CORR)=     -920.28963145     Delta=-1.91D-04
 NORM(A)=   0.15183674D+01
 DE(Corr)=  -3.1700799     E(CORR)=     -920.28966533     Delta=-3.39D-05
 NORM(A)=   0.15183391D+01
 DE(Corr)=  -3.1701180     E(CORR)=     -920.28970342     Delta=-3.81D-05
 NORM(A)=   0.15183887D+01
 DE(Corr)=  -3.1700838     E(CORR)=     -920.28966914     Delta= 3.43D-05
 NORM(A)=   0.15183815D+01
 DE(Corr)=  -3.1700975     E(CORR)=     -920.28968291     Delta=-1.38D-05
 NORM(A)=   0.15183842D+01
 DE(Corr)=  -3.1700920     E(CORR)=     -920.28967736     Delta= 5.55D-06
 NORM(A)=   0.15183848D+01
 DE(Corr)=  -3.1700925     E(CORR)=     -920.28967793     Delta=-5.76D-07
 NORM(A)=   0.15183841D+01
 DE(Corr)=  -3.1700926     E(CORR)=     -920.28967794     Delta=-9.91D-09
 NORM(A)=   0.15183838D+01
 Wavefunction amplitudes converged. E(Corr)=     -920.28967794    
 Largest amplitude= 6.40D-02
 Time for triples=   561963.35 seconds.
 T4(CCSD)= -0.16692403D+00
 T5(CCSD)=  0.32560057D-02
 CCSD(T)= -0.92045334597D+03
 Discarding MO integrals.

 **********************************************************************

            Population analysis using the SCF Density.

 **********************************************************************

 Orbital symmetries:
       Occupied  (AG) (BU) (AG) (BU) (AG) (BU) (AG) (BU) (AG) (BU)
                 (BU) (AG) (AG) (BU) (BU) (AG) (BU) (AG) (BU) (AG)
                 (BU) (AG) (BU) (AG) (AG) (BU) (AG) (BU) (BU) (AG)
                 (AG) (BU) (AG) (AG) (BU) (BU) (AG) (BU) (AG) (BU)
                 (AG) (BU) (BU) (AG) (BU) (AG) (AG) (AG) (BU) (BU)
                 (AG) (BU) (AG) (AG) (BU) (BU) (AG) (AG) (AU) (BU)
                 (BU) (BU) (AG) (BG) (AG) (BU) (AU) (BU) (AG) (BG)
                 (AG) (BG) (AU) (AU) (BG) (AU) (AU) (BG) (BG)
       Virtual   (AU) (AU) (BG) (BG) (AU) (BG) (AG) (BU) (BU) (AG)
                 (AG) (BG) (BU) (BU) (AG) (AG) (AU) (BU) (BU) (AG)
                 (AU) (BU) (AG) (BG) (AG) (BU) (AU) (BU) (BU) (AG)
                 (AG) (AG) (AG) (BU) (BG) (BU) (BU) (AG) (BU) (BU)
                 (AG) (AG) (BU) (AG) (BU) (AG) (BU) (BU) (AG) (AU)
                 (BU) (AG) (BG) (AG) (BU) (BG) (AG) (AU) (AG) (BU)
                 (AG) (BU) (BU) (AU) (BG) (AG) (BU) (AG) (BG) (BU)
                 (AU) (AG) (BU) (AG) (AU) (BU) (AG) (AG) (AU) (BU)
                 (AG) (BG) (BU) (BU) (BG) (BG) (BU) (AG) (AU) (BG)
                 (AU) (AG) (AU) (BU) (BU) (BG) (AG) (BU) (BG) (AG)
                 (BU) (AU) (AG) (BU) (AG) (AG) (BU) (AU) (BG) (BU)
                 (AU) (AG) (BG) (AU) (BU) (AG) (AG) (BG) (BG) (BU)
                 (AG) (AU) (BU) (BU) (AG) (AG) (AU) (BU) (BU) (AG)
                 (BG) (BG) (AG) (AU) (BU) (AG) (AU) (BU) (AG) (BG)
                 (AU) (BU) (AG) (BG) (BU) (BU) (BG) (AU) (AU) (AG)
                 (AG) (BG) (BU) (BG) (BU) (AU) (AG) (BU) (AU) (AG)
                 (BU) (AG) (AG) (AG) (BU) (BU) (AG) (BU) (BG) (AG)
                 (BU) (AU) (BG) (AG) (BU) (AU) (BU) (AG) (BG) (BU)
                 (AU) (AG) (AG) (AG) (BU) (AU) (BG) (BU) (BG) (AU)
                 (BG) (AG) (BU) (AG) (BU) (AG) (AU) (AG) (BU) (BG)
                 (BU) (AG) (BU) (AG) (BG) (AU) (BU) (BG) (AG) (AU)
                 (BU) (BG) (AG) (AG) (BU) (AU) (BU) (AG) (BG) (AG)
                 (BU) (BU) (AU) (AU) (AG) (BU) (BU) (BG) (AG) (BU)
                 (AG) (AU) (AG) (BG) (BG) (AG) (AG) (BU) (BG) (AU)
                 (BU) (BU) (BU) (AU) (AG) (AG) (BG) (BU) (BU) (AG)
                 (BU) (AG) (AU) (BU) (AG) (AG) (AU) (BU) (AU) (BU)
                 (AG) (BG) (AG) (BU) (BU) (BG) (AG) (AG) (BU) (BG)
                 (AG) (AU) (BU) (AU) (BU) (BG) (AG) (AG) (BU) (BU)
                 (AG) (AU) (BU) (AG) (AG) (BG) (BU) (AG) (BU) (BG)
                 (AG) (BU) (AU) (AG) (BU) (AG) (BU) (AG) (BU) (BU)
                 (BU) (AG) (BU) (AG) (AG) (BU) (AG) (BU) (AG) (BU)
                 (BU) (AG) (AG) (BU) (AG) (AG) (BU) (BU) (AG) (AG)
                 (BU) (BU) (AG) (AG) (BU) (AG) (BU)
 The electronic state is 1-AG.
 Alpha  occ. eigenvalues --  -11.25758 -11.25756 -11.25548 -11.25548 -11.25464
 Alpha  occ. eigenvalues --  -11.25379 -11.25254 -11.25254 -11.25240 -11.25233
 Alpha  occ. eigenvalues --  -11.24797 -11.24797 -11.24651 -11.24651 -11.24648
 Alpha  occ. eigenvalues --  -11.24648 -11.24606 -11.24606 -11.24555 -11.24555
 Alpha  occ. eigenvalues --  -11.24516 -11.24516 -11.24452 -11.24452  -1.20449
 Alpha  occ. eigenvalues --   -1.17561  -1.14657  -1.12716  -1.10078  -1.07121
 Alpha  occ. eigenvalues --   -1.04399  -1.03596  -1.01914  -0.99886  -0.99071
 Alpha  occ. eigenvalues --   -0.95162  -0.88577  -0.86425  -0.86026  -0.83760
 Alpha  occ. eigenvalues --   -0.81785  -0.81450  -0.77385  -0.73439  -0.72385
 Alpha  occ. eigenvalues --   -0.71112  -0.70059  -0.67131  -0.65795  -0.65263
 Alpha  occ. eigenvalues --   -0.64486  -0.62379  -0.61270  -0.60223  -0.60202
 Alpha  occ. eigenvalues --   -0.58925  -0.57638  -0.56809  -0.56559  -0.55772
 Alpha  occ. eigenvalues --   -0.55374  -0.54586  -0.54060  -0.53020  -0.50753
 Alpha  occ. eigenvalues --   -0.50500  -0.49086  -0.48237  -0.47488  -0.47132
 Alpha  occ. eigenvalues --   -0.45630  -0.43164  -0.40309  -0.36135  -0.35969
 Alpha  occ. eigenvalues --   -0.33989  -0.30759  -0.28785  -0.23358
 Alpha virt. eigenvalues --    0.03242   0.08207   0.09942   0.12990   0.15215
 Alpha virt. eigenvalues --    0.15608   0.18220   0.18585   0.18680   0.19801
 Alpha virt. eigenvalues --    0.19946   0.20333   0.22253   0.22316   0.24006
 Alpha virt. eigenvalues --    0.24317   0.24722   0.25213   0.27869   0.28856
 Alpha virt. eigenvalues --    0.29103   0.33246   0.33351   0.33422   0.38076
 Alpha virt. eigenvalues --    0.38278   0.39664   0.39844   0.40492   0.42465
 Alpha virt. eigenvalues --    0.43875   0.44852   0.45525   0.45529   0.46469
 Alpha virt. eigenvalues --    0.46556   0.46815   0.47822   0.48925   0.49759
 Alpha virt. eigenvalues --    0.52934   0.53612   0.55553   0.58328   0.59852
 Alpha virt. eigenvalues --    0.63430   0.63564   0.64359   0.64793   0.65367
 Alpha virt. eigenvalues --    0.65568   0.65636   0.66821   0.67073   0.67088
 Alpha virt. eigenvalues --    0.67921   0.68624   0.68645   0.68995   0.69224
 Alpha virt. eigenvalues --    0.69775   0.69817   0.70340   0.70520   0.71208
 Alpha virt. eigenvalues --    0.71773   0.72458   0.72635   0.73106   0.73201
 Alpha virt. eigenvalues --    0.73655   0.74491   0.74657   0.75141   0.75179
 Alpha virt. eigenvalues --    0.75617   0.75729   0.76504   0.76831   0.76979
 Alpha virt. eigenvalues --    0.77829   0.78290   0.79056   0.79684   0.80515
 Alpha virt. eigenvalues --    0.80974   0.81246   0.82755   0.83253   0.84467
 Alpha virt. eigenvalues --    0.86083   0.86403   0.87370   0.88501   0.89217
 Alpha virt. eigenvalues --    0.89659   0.89727   0.90307   0.90939   0.91589
 Alpha virt. eigenvalues --    0.91961   0.92968   0.93590   0.93867   0.94154
 Alpha virt. eigenvalues --    0.94342   0.97122   0.97254   0.98814   0.99299
 Alpha virt. eigenvalues --    1.01616   1.03473   1.04327   1.05335   1.08459
 Alpha virt. eigenvalues --    1.08815   1.09477   1.09558   1.10533   1.10576
 Alpha virt. eigenvalues --    1.11272   1.11468   1.12704   1.13535   1.13536
 Alpha virt. eigenvalues --    1.14052   1.14995   1.15422   1.15579   1.16164
 Alpha virt. eigenvalues --    1.16735   1.17882   1.18134   1.18376   1.18478
 Alpha virt. eigenvalues --    1.19358   1.19735   1.20168   1.20569   1.22016
 Alpha virt. eigenvalues --    1.22355   1.22658   1.23594   1.24060   1.24204
 Alpha virt. eigenvalues --    1.25218   1.26152   1.26833   1.27768   1.28509
 Alpha virt. eigenvalues --    1.28810   1.29624   1.30764   1.31789   1.31861
 Alpha virt. eigenvalues --    1.32855   1.34278   1.34937   1.35295   1.35453
 Alpha virt. eigenvalues --    1.38052   1.38629   1.41790   1.43717   1.44955
 Alpha virt. eigenvalues --    1.54071   1.54543   1.57545   1.59231   1.59605
 Alpha virt. eigenvalues --    1.61449   1.61595   1.62109   1.62200   1.62590
 Alpha virt. eigenvalues --    1.63322   1.63484   1.63911   1.64474   1.66290
 Alpha virt. eigenvalues --    1.66479   1.66868   1.69337   1.70975   1.71247
 Alpha virt. eigenvalues --    1.72283   1.72639   1.73470   1.74120   1.74623
 Alpha virt. eigenvalues --    1.74739   1.75074   1.76825   1.76950   1.79139
 Alpha virt. eigenvalues --    1.81232   1.81797   1.82701   1.83967   1.85330
 Alpha virt. eigenvalues --    1.85957   1.85969   1.87974   1.88540   1.89034
 Alpha virt. eigenvalues --    1.89141   1.89207   1.90000   1.90099   1.90946
 Alpha virt. eigenvalues --    1.91017   1.91665   1.92174   1.92849   1.93878
 Alpha virt. eigenvalues --    1.94024   1.95395   1.96715   1.96742   1.97043
 Alpha virt. eigenvalues --    1.98378   1.98649   1.99942   2.00046   2.00438
 Alpha virt. eigenvalues --    2.01174   2.02318   2.02424   2.02568   2.04051
 Alpha virt. eigenvalues --    2.04371   2.04469   2.08193   2.08389   2.08638
 Alpha virt. eigenvalues --    2.08755   2.09237   2.09658   2.10148   2.11239
 Alpha virt. eigenvalues --    2.11286   2.11602   2.14288   2.14314   2.14340
 Alpha virt. eigenvalues --    2.15477   2.16734   2.16862   2.17921   2.19130
 Alpha virt. eigenvalues --    2.19908   2.19962   2.20378   2.21365   2.22655
 Alpha virt. eigenvalues --    2.23580   2.24369   2.24528   2.25051   2.26581
 Alpha virt. eigenvalues --    2.28699   2.29803   2.30373   2.31821   2.33447
 Alpha virt. eigenvalues --    2.34801   2.35365   2.36485   2.38038   2.38923
 Alpha virt. eigenvalues --    2.42838   2.43259   2.43408   2.45270   2.45327
 Alpha virt. eigenvalues --    2.46408   2.49595   2.50647   2.50891   2.52352
 Alpha virt. eigenvalues --    2.53749   2.56995   2.57311   2.58284   2.58569
 Alpha virt. eigenvalues --    2.59024   2.59486   2.63455   2.65869   2.70913
 Alpha virt. eigenvalues --    2.71624   2.71873   2.72373   2.74127   2.76094
 Alpha virt. eigenvalues --    2.77161   2.79278   2.79623   2.81213   2.83790
 Alpha virt. eigenvalues --    2.85053   2.88787   2.94612   2.94945   2.95628
 Alpha virt. eigenvalues --    2.99141   2.99516   3.03091   3.04802   3.06775
 Alpha virt. eigenvalues --    3.07693   3.08081   3.10937   3.13827   3.14375
 Alpha virt. eigenvalues --    3.16750   3.21988   3.22637   3.23359   3.28951
 Alpha virt. eigenvalues --    3.29840   3.59086   3.62128   3.77782   3.77947
 Alpha virt. eigenvalues --    3.93552   3.94295
          Condensed to atoms (all electrons):
 Mulliken charges:
               1
     1  C   -0.011619
     2  C    0.001583
     3  C   -0.020898
     4  C   -0.053376
     5  C   -0.085472
     6  C    0.028998
     7  C    0.067748
     8  C   -0.092191
     9  C    0.059975
    10  C   -0.012740
    11  C   -0.039441
    12  C   -0.053376
    13  C   -0.020898
    14  C    0.001583
    15  C   -0.011619
    16  C    0.028998
    17  C   -0.085472
    18  C    0.067748
    19  C   -0.092191
    20  C    0.059975
    21  C   -0.012740
    22  C   -0.039441
    23  C    0.008937
    24  C    0.008937
    25  H    0.030128
    26  H    0.027656
    27  H    0.023924
    28  H    0.017716
    29  H    0.008486
    30  H    0.015320
    31  H    0.025267
    32  H    0.023924
    33  H    0.027656
    34  H    0.030128
    35  H    0.017716
    36  H    0.008486
    37  H    0.015320
    38  H    0.025267
 Sum of Mulliken charges =  -0.00000
 Mulliken charges with hydrogens summed into heavy atoms:
               1
     1  C    0.018509
     2  C    0.029239
     3  C    0.003026
     4  C   -0.053376
     5  C   -0.085472
     6  C    0.046713
     7  C    0.076233
     8  C   -0.092191
     9  C    0.075295
    10  C    0.012527
    11  C   -0.039441
    12  C   -0.053376
    13  C    0.003026
    14  C    0.029239
    15  C    0.018509
    16  C    0.046713
    17  C   -0.085472
    18  C    0.076233
    19  C   -0.092191
    20  C    0.075295
    21  C    0.012527
    22  C   -0.039441
    23  C    0.008937
    24  C    0.008937
 Electronic spatial extent (au):  <R**2>=           8541.2804
 Charge=             -0.0000 electrons
 Dipole moment (field-independent basis, Debye):
    X=             -0.0000    Y=              0.0000    Z=              0.0000  Tot=              0.0000
 Unable to Open any file for archive entry.
 1\1\GINC-GPU\SP\RCCSD(T)-FC\CC-pVDZ\C24H14\XUHJ\13-Aug-2025\0\\#T CCSD
 (T)/cc-pVDZ symm=veryloose\\c1ccc2c(c1)cc1ccc3c4ccccc4cc4ccc2c1c43\\0,
 1\C,0,-1.055824,-5.727381,0.\C,0,-2.309256,-5.063206,0.\C,0,-2.372309,
 -3.685691,0.\C,0,-1.194031,-2.885371,0.\C,0,0.074078,-3.564591,0.\C,0,
 0.105581,-4.990652,0.\C,0,1.26738,-2.813253,0.\C,0,1.256095,-1.422514,
 0.\C,0,2.470081,-0.657153,0.\C,0,2.452666,0.70562,0.\C,0,1.220138,1.44
 7259,0.\C,0,1.194031,2.885371,0.\C,0,2.372309,3.685691,0.\C,0,2.309256
 ,5.063206,0.\C,0,1.055824,5.727381,0.\C,0,-0.105581,4.990652,0.\C,0,-0
 .074078,3.564591,0.\C,0,-1.26738,2.813253,0.\C,0,-1.256095,1.422514,0.
 \C,0,-2.470081,0.657153,0.\C,0,-2.452666,-0.70562,0.\C,0,-1.220138,-1.
 447259,0.\C,0,0.,-0.71855,0.\C,0,0.,0.71855,0.\H,0,-1.01778,-6.820616,
 0.\H,0,-3.233363,-5.648576,0.\H,0,-3.353097,-3.208353,0.\H,0,1.080162,
 -5.488369,0.\H,0,2.225984,-3.341098,0.\H,0,3.422331,-1.195901,0.\H,0,3
 .402087,1.241937,0.\H,0,3.353097,3.208353,0.\H,0,3.233363,5.648576,0.\
 H,0,1.01778,6.820616,0.\H,0,-1.080162,5.488369,0.\H,0,-2.225984,3.3410
 98,0.\H,0,-3.422331,1.195901,0.\H,0,-3.402087,-1.241937,0.\\Version=ES
 64L-G16RevC.01\State=1-AG\HF=-917.1195854\MP2=-920.2200724\MP3=-920.27
 49465\MP4D=-920.3633099\MP4DQ=-920.2596556\MP4SDQ=-920.2862855\CCSD=-9
 20.2896779\CCSD(T)=-920.453346\RMSD=9.609e-09\PG=C02H [SGH(C24H14)]\\@
 The archive entry for this job was punched.


 LIFE CAN ONLY BE UNDERSTOOD BACKWARD, BUT MUST
 BE LIVED FORWARD. -- KIRKEGAARD
 Job cpu time:       7 days 11 hours 10 minutes  8.8 seconds.
 Elapsed time:       0 days  5 hours 37 minutes  8.8 seconds.
 File lengths (MBytes):  RWF=  39805 Int=      0 D2E=      0 Chk=     12 Scr=      1
 Normal termination of Gaussian 16 at Wed Aug 13 01:46:39 2025.
 Initial command:
 /opt/g16/l1.exe "/tmp/Gau-3977510.inp" -scrdir="/tmp/"
 Entering Link 1 = /opt/g16/l1.exe PID=   4123355.
  
 Copyright (c) 1988-2019, Gaussian, Inc.  All Rights Reserved.
  
 This is part of the Gaussian(R) 16 program.  It is based on
 the Gaussian(R) 09 system (copyright 2009, Gaussian, Inc.),
 the Gaussian(R) 03 system (copyright 2003, Gaussian, Inc.),
 the Gaussian(R) 98 system (copyright 1998, Gaussian, Inc.),
 the Gaussian(R) 94 system (copyright 1995, Gaussian, Inc.),
 the Gaussian 92(TM) system (copyright 1992, Gaussian, Inc.),
 the Gaussian 90(TM) system (copyright 1990, Gaussian, Inc.),
 the Gaussian 88(TM) system (copyright 1988, Gaussian, Inc.),
 the Gaussian 86(TM) system (copyright 1986, Carnegie Mellon
 University), and the Gaussian 82(TM) system (copyright 1983,
 Carnegie Mellon University). Gaussian is a federally registered
 trademark of Gaussian, Inc.
  
 This software contains proprietary and confidential information,
 including trade secrets, belonging to Gaussian, Inc.
  
 This software is provided under written license and may be
 used, copied, transmitted, or stored only in accord with that
 written license.
  
 The following legend is applicable only to US Government
 contracts under FAR:
  
                    RESTRICTED RIGHTS LEGEND
  
 Use, reproduction and disclosure by the US Government is
 subject to restrictions as set forth in subparagraphs (a)
 and (c) of the Commercial Computer Software - Restricted
 Rights clause in FAR 52.227-19.
  
 Gaussian, Inc.
 340 Quinnipiac St., Bldg. 40, Wallingford CT 06492
  
  
 ---------------------------------------------------------------
 Warning -- This program may not be used in any manner that
 competes with the business of Gaussian, Inc. or will provide
 assistance to any competitor of Gaussian, Inc.  The licensee
 of this program is prohibited from giving any competitor of
 Gaussian, Inc. access to this program.  By using this program,
 the user acknowledges that Gaussian, Inc. is engaged in the
 business of creating and licensing software in the field of
 computational chemistry and represents and warrants to the
 licensee that it is not a competitor of Gaussian, Inc. and that
 it will not use this program in any manner prohibited above.
 ---------------------------------------------------------------
  

 Cite this work as:
 Gaussian 16, Revision C.01,
 M. J. Frisch, G. W. Trucks, H. B. Schlegel, G. E. Scuseria, 
 M. A. Robb, J. R. Cheeseman, G. Scalmani, V. Barone, 
 G. A. Petersson, H. Nakatsuji, X. Li, M. Caricato, A. V. Marenich, 
 J. Bloino, B. G. Janesko, R. Gomperts, B. Mennucci, H. P. Hratchian, 
 J. V. Ortiz, A. F. Izmaylov, J. L. Sonnenberg, D. Williams-Young, 
 F. Ding, F. Lipparini, F. Egidi, J. Goings, B. Peng, A. Petrone, 
 T. Henderson, D. Ranasinghe, V. G. Zakrzewski, J. Gao, N. Rega, 
 G. Zheng, W. Liang, M. Hada, M. Ehara, K. Toyota, R. Fukuda, 
 J. Hasegawa, M. Ishida, T. Nakajima, Y. Honda, O. Kitao, H. Nakai, 
 T. Vreven, K. Throssell, J. A. Montgomery, Jr., J. E. Peralta, 
 F. Ogliaro, M. J. Bearpark, J. J. Heyd, E. N. Brothers, K. N. Kudin, 
 V. N. Staroverov, T. A. Keith, R. Kobayashi, J. Normand, 
 K. Raghavachari, A. P. Rendell, J. C. Burant, S. S. Iyengar, 
 J. Tomasi, M. Cossi, J. M. Millam, M. Klene, C. Adamo, R. Cammi, 
 J. W. Ochterski, R. L. Martin, K. Morokuma, O. Farkas, 
 J. B. Foresman, and D. J. Fox, Gaussian, Inc., Wallingford CT, 2019.
 
 ******************************************
 Gaussian 16:  ES64L-G16RevC.01  3-Jul-2019
                13-Aug-2025 
 ******************************************
 %nprocshared=32
 Will use up to   32 processors via shared memory.
 %mem=153600MB
 %chk=RXUSYFJGDZFVND-UHFFFAOYSA-N-1.chk
 -----------------------------------------------
 #T CCSD(T)/cc-pVTZ symm=veryloose geom=allcheck
 -----------------------------------------------
 Structure from the checkpoint file:  "RXUSYFJGDZFVND-UHFFFAOYSA-N-1.chk"
 --------------------------------------
 c1ccc2c(c1)cc1ccc3c4ccccc4cc4ccc2c1c43
 --------------------------------------
 Charge =  0 Multiplicity = 1
 Z-Matrix found in chk file.
 C,0,-1.055824,-5.727381,0.
 C,0,-2.309256,-5.063206,0.
 C,0,-2.372309,-3.685691,0.
 C,0,-1.194031,-2.885371,0.
 C,0,0.074078,-3.564591,0.
 C,0,0.105581,-4.990652,0.
 C,0,1.26738,-2.813253,0.
 C,0,1.256095,-1.422514,0.
 C,0,2.470081,-0.657153,0.
 C,0,2.452666,0.70562,0.
 C,0,1.220138,1.447259,0.
 C,0,1.194031,2.885371,0.
 C,0,2.372309,3.685691,0.
 C,0,2.309256,5.063206,0.
 C,0,1.055824,5.727381,0.
 C,0,-0.105581,4.990652,0.
 C,0,-0.074078,3.564591,0.
 C,0,-1.26738,2.813253,0.
 C,0,-1.256095,1.422514,0.
 C,0,-2.470081,0.657153,0.
 C,0,-2.452666,-0.70562,0.
 C,0,-1.220138,-1.447259,0.
 C,0,0.,-0.71855,0.
 C,0,0.,0.71855,0.
 H,0,-1.01778,-6.820616,0.
 H,0,-3.233363,-5.648576,0.
 H,0,-3.353097,-3.208353,0.
 H,0,1.080162,-5.488369,0.
 H,0,2.225984,-3.341098,0.
 H,0,3.422331,-1.195901,0.
 H,0,3.402087,1.241937,0.
 H,0,3.353097,3.208353,0.
 H,0,3.233363,5.648576,0.
 H,0,1.01778,6.820616,0.
 H,0,-1.080162,5.488369,0.
 H,0,-2.225984,3.341098,0.
 H,0,-3.422331,1.195901,0.
 H,0,-3.402087,-1.241937,0.
 Recover connectivity data from disk.
                    Distance matrix (angstroms):
                    1          2          3          4          5
     1  C    0.000000
     2  C    1.418527   0.000000
     3  C    2.429327   1.378957   0.000000
     4  C    2.845369   2.446772   1.424377   0.000000
     5  C    2.440151   2.815338   2.449382   1.438555   0.000000
     6  C    1.375366   2.415927   2.800511   2.474106   1.426409
     7  C    3.726851   4.225472   3.742791   2.462467   1.410134
     8  C    4.886394   5.095720   4.276364   2.853606   2.446560
     9  C    6.175696   6.500413   5.711461   4.288435   3.767496
    10  C    7.327551   7.480324   6.524109   5.117970   4.887984
    11  C    7.526982   7.405591   6.265210   4.959828   5.141215
    12  C    8.901761   8.686363   7.476472   6.245343   6.546473
    13  C   10.017885   9.922714   8.766337   7.476472   7.605817
    14  C   11.303120  11.129909   9.922714   8.686363   8.912626
    15  C   11.647774  11.303120  10.017885   8.901761   9.343691
    16  C   10.760074  10.292533   8.967552   7.950878   8.557129
    17  C    9.343691   8.912626   7.605817   6.546473   7.130721
    18  C    8.543254   7.945068   6.592203   5.699096   6.517392
    19  C    7.152699   6.570671   5.228737   4.308332   5.161451
    20  C    6.539296   5.722619   4.343944   3.765339   4.929084
    21  C    5.212413   4.359945   2.981154   2.517037   3.815514
    22  C    4.283275   3.776407   2.517554   1.438349   2.481550
    23  C    5.118901   4.920234   3.798918   2.474030   2.847005
    24  C    6.531829   6.225863   5.002518   3.796572   4.283782
    25  H    1.093897   2.180917   3.415041   3.939190   3.434218
    26  H    2.178965   1.093907   2.143439   3.434265   3.909240
    27  H    3.409247   2.128399   1.090778   2.183090   3.445640
    28  H    2.149317   3.415980   3.894766   3.456523   2.170974
    29  H    4.057661   4.851191   4.611187   3.450245   2.163481
    30  H    6.370886   6.914271   6.306894   4.915802   4.101401
    31  H    8.273111   8.507307   7.591124   6.177295   5.846226
    32  H    9.964232  10.024018   8.961480   7.603279   7.524941
    33  H   12.157694  12.060800  10.888163   9.614056   9.739791
    34  H   12.718178  12.340761  11.039710   9.954812  10.427996
    35  H   11.215776  10.622919   9.264611   8.374514   9.126245
    36  H    9.143664   8.404717   7.028312   6.311406   7.278655
    37  H    7.316569   6.357307   4.993244   4.649957   5.906535
    38  H    5.062031   3.974466   2.651863   2.752524   4.180723
                    6          7          8          9         10
     6  C    0.000000
     7  C    2.467963   0.000000
     8  C    3.749039   1.390785   0.000000
     9  C    4.936605   2.468857   1.435110   0.000000
    10  C    6.160870   3.713135   2.441462   1.362884   0.000000
    11  C    6.533677   4.260774   2.869998   2.447633   1.438455
    12  C    7.950878   5.699096   4.308332   3.765339   2.517037
    13  C    8.967552   6.592203   5.228737   4.343944   2.981154
    14  C   10.292533   7.945068   6.570671   5.722619   4.359945
    15  C   10.760074   8.543254   7.152699   6.539296   5.212413
    16  C    9.983537   7.923759   6.556131   6.207394   4.990604
    17  C    8.557129   6.517392   5.161451   4.929084   3.815514
    18  C    7.923759   6.171108   4.930482   5.100229   4.275612
    19  C    6.556131   4.930482   3.795429   4.267248   3.777412
    20  C    6.207394   5.100229   4.267248   5.112006   4.922986
    21  C    4.990604   4.275612   3.777412   4.922986   5.104300
    22  C    3.783274   2.837902   2.476357   3.773855   4.257273
    23  C    4.273406   2.448271   1.439910   2.470844   2.836165
    24  C    5.710178   3.752317   2.482323   2.827341   2.452700
    25  H    2.147256   4.613124   5.857475   7.081910   8.287836
    26  H    3.403147   5.319374   6.165617   7.579154   8.526824
    27  H    3.890892   4.637339   4.943063   6.357517   7.001862
    28  H    1.094317   2.681659   4.069660   5.027178   6.344231
    29  H    2.686473   1.094323   2.149802   2.695022   4.053062
    30  H    5.039937   2.694372   2.178057   1.094088   2.134486
    31  H    7.050682   4.582744   3.421196   2.115462   1.090429
    32  H    8.818733   6.372594   5.083537   3.965079   2.659784
    33  H   11.089463   8.687211   7.342336   6.351757   5.004228
    34  H   11.846441   9.637102   8.246574   7.617494   6.281089
    35  H   10.545893   8.627160   7.295094   7.097300   5.946054
    36  H    8.651835   7.076696   5.900582   6.167580   5.369871
    37  H    7.121770   6.169822   5.361321   6.176919   5.895419
    38  H    5.133868   4.926759   4.661681   5.901214   6.170179
                   11         12         13         14         15
    11  C    0.000000
    12  C    1.438349   0.000000
    13  C    2.517554   1.424377   0.000000
    14  C    3.776407   2.446772   1.378957   0.000000
    15  C    4.283275   2.845369   2.429327   1.418527   0.000000
    16  C    3.783274   2.474106   2.800511   2.415927   1.375366
    17  C    2.481550   1.438555   2.449382   2.815338   2.440151
    18  C    2.837902   2.462467   3.742791   4.225472   3.726851
    19  C    2.476357   2.853606   4.276364   5.095720   4.886394
    20  C    3.773855   4.288435   5.711461   6.500413   6.175696
    21  C    4.257273   5.117970   6.524109   7.480324   7.327551
    22  C    3.785919   4.959828   6.265210   7.405591   7.526982
    23  C    2.485853   3.796572   5.002518   6.225863   6.531829
    24  C    1.421180   2.474030   3.798918   4.920234   5.118901
    25  H    8.565397   9.954812  11.039710  12.340761  12.718178
    26  H    8.377622   9.614056  10.888163  12.060800  12.157694
    27  H    6.526040   7.603279   8.961480  10.024018   9.964232
    28  H    6.937040   8.374514   9.264611  10.622919  11.215776
    29  H    4.892861   6.311406   7.028312   8.404717   9.143664
    30  H    3.440341   4.649957   4.993244   6.357307   7.316569
    31  H    2.191588   2.752524   2.651863   3.974466   5.062031
    32  H    2.766038   2.183090   1.090778   2.128399   3.409247
    33  H    4.658770   3.434265   2.143439   1.093907   2.178965
    34  H    5.377166   3.939190   3.415041   2.180917   1.093897
    35  H    4.649941   3.456523   3.894766   3.415980   2.149317
    36  H    3.932224   3.450245   4.611187   4.851191   4.057661
    37  H    4.649269   4.915802   6.306894   6.914271   6.370886
    38  H    5.347592   6.177295   7.591124   8.507307   8.273111
                   16         17         18         19         20
    16  C    0.000000
    17  C    1.426409   0.000000
    18  C    2.467963   1.410134   0.000000
    19  C    3.749039   2.446560   1.390785   0.000000
    20  C    4.936605   3.767496   2.468857   1.435110   0.000000
    21  C    6.160870   4.887984   3.713135   2.441462   1.362884
    22  C    6.533677   5.141215   4.260774   2.869998   2.447633
    23  C    5.710178   4.283782   3.752317   2.482323   2.827341
    24  C    4.273406   2.847005   2.448271   1.439910   2.470844
    25  H   11.846441  10.427996   9.637102   8.246574   7.617494
    26  H   11.089463   9.739791   8.687211   7.342336   6.351757
    27  H    8.818733   7.524941   6.372594   5.083537   3.965079
    28  H   10.545893   9.126245   8.627160   7.295094   7.097300
    29  H    8.651835   7.278655   7.076696   5.900582   6.167580
    30  H    7.121770   5.906535   6.169822   5.361321   6.176919
    31  H    5.133868   4.180723   4.926759   4.661681   5.901214
    32  H    3.890892   3.445640   4.637339   4.943063   6.357517
    33  H    3.403147   3.909240   5.319374   6.165617   7.579154
    34  H    2.147256   3.434218   4.613124   5.857475   7.081910
    35  H    1.094317   2.170974   2.681659   4.069660   5.027178
    36  H    2.686473   2.163481   1.094323   2.149802   2.695022
    37  H    5.039937   4.101401   2.694372   2.178057   1.094088
    38  H    7.050682   5.846226   4.582744   3.421196   2.115462
                   21         22         23         24         25
    21  C    0.000000
    22  C    1.438455   0.000000
    23  C    2.452700   1.421180   0.000000
    24  C    2.836165   2.485853   1.437100   0.000000
    25  H    6.281089   5.377166   6.186363   7.607555   0.000000
    26  H    5.004228   4.658770   5.895744   7.141073   2.506489
    27  H    2.659784   2.766038   4.176407   5.163703   4.301412
    28  H    5.946054   4.649941   4.890595   6.300206   2.485205
    29  H    5.369871   3.932224   3.439878   4.629875   4.757000
    30  H    5.895419   4.649269   3.455461   3.921412   7.166031
    31  H    6.170179   5.347592   3.926539   3.442111   9.194563
    32  H    7.001862   6.526040   5.163703   4.176407  10.940054
    33  H    8.526824   8.377622   7.141073   5.895744  13.173950
    34  H    8.287836   8.565397   7.607555   6.186363  13.792270
    35  H    6.344231   6.937040   6.300206   4.890595  12.309143
    36  H    4.053062   4.892861   4.629875   3.439878  10.233288
    37  H    2.134486   3.440341   3.921412   3.455461   8.369373
    38  H    1.090429   2.191588   3.442111   3.926539   6.066843
                   26         27         28         29         30
    26  H    0.000000
    27  H    2.443159   0.000000
    28  H    4.316499   4.985204   0.000000
    29  H    5.926966   5.580660   2.433861   0.000000
    30  H    8.007782   7.067983   4.889891   2.456240   0.000000
    31  H    9.566001   8.089351   7.119575   4.731535   2.437922
    32  H   11.037511   9.281549   8.988838   6.645727   4.404798
    33  H   13.017073  11.037511  11.343184   9.045941   6.847085
    34  H   13.173950  10.940054  12.309143  10.233288   8.369373
    35  H   11.343184   8.988838  11.187304   9.428154   8.059275
    36  H    9.045941   6.645727   9.428154   8.029431   7.244848
    37  H    6.847085   4.404798   8.059275   7.244848   7.250525
    38  H    4.409868   1.967026   6.174362   6.006801   6.824573
                   31         32         33         34         35
    31  H    0.000000
    32  H    1.967026   0.000000
    33  H    4.409868   2.443159   0.000000
    34  H    6.066843   4.301412   2.506489   0.000000
    35  H    6.174362   4.985204   4.316499   2.485205   0.000000
    36  H    6.006801   5.580660   5.926966   4.757000   2.433861
    37  H    6.824573   7.067983   8.007782   7.166031   4.889891
    38  H    7.243370   8.089351   9.566001   9.194563   7.119575
                   36         37         38
    36  H    0.000000
    37  H    2.456240   0.000000
    38  H    4.731535   2.437922   0.000000
 Framework group  C2H[SGH(C24H14)]
 Deg. of freedom    37
                         Standard orientation:                         
 ---------------------------------------------------------------------
 Center     Atomic      Atomic             Coordinates (Angstroms)
 Number     Number       Type             X           Y           Z
 ---------------------------------------------------------------------
      1          6           0        1.102262    5.718625    0.000000
      2          6           0        2.350263    5.044302    0.000000
      3          6           0        2.402137    3.666320    0.000000
      4          6           0        1.217404    2.875587    0.000000
      5          6           0       -0.045152    3.565075    0.000000
      6          6           0       -0.065083    4.991344    0.000000
      7          6           0       -1.244511    2.823444    0.000000
      8          6           0       -1.244511    1.432659    0.000000
      9          6           0       -2.464667    0.677174    0.000000
     10          6           0       -2.458311   -0.685696    0.000000
     11          6           0       -1.231841   -1.437311    0.000000
     12          6           0       -1.217404   -2.875587    0.000000
     13          6           0       -2.402137   -3.666320    0.000000
     14          6           0       -2.350263   -5.044302    0.000000
     15          6           0       -1.102262   -5.718625    0.000000
     16          6           0        0.065083   -4.991344    0.000000
     17          6           0        0.045152   -3.565075    0.000000
     18          6           0        1.244511   -2.823444    0.000000
     19          6           0        1.244511   -1.432659    0.000000
     20          6           0        2.464667   -0.677174    0.000000
     21          6           0        2.458311    0.685696    0.000000
     22          6           0        1.231841    1.437311    0.000000
     23          6           0        0.005830    0.718526    0.000000
     24          6           0       -0.005830   -0.718526    0.000000
     25          1           0        1.073090    6.812133    0.000000
     26          1           0        3.279090    5.622154    0.000000
     27          1           0        3.379020    3.181040    0.000000
     28          1           0       -1.035593    5.496953    0.000000
     29          1           0       -2.198801    3.359050    0.000000
     30          1           0       -3.412515    1.223631    0.000000
     31          1           0       -3.412052   -1.214291    0.000000
     32          1           0       -3.379020   -3.181040    0.000000
     33          1           0       -3.279090   -5.622154    0.000000
     34          1           0       -1.073090   -6.812133    0.000000
     35          1           0        1.035593   -5.496953    0.000000
     36          1           0        2.198801   -3.359050    0.000000
     37          1           0        3.412515   -1.223631    0.000000
     38          1           0        3.412052    1.214291    0.000000
 ---------------------------------------------------------------------
 Rotational constants (GHZ):           0.7506440           0.1410958           0.1187709
   916 basis functions,  1486 primitive gaussians,  1050 cartesian basis functions
    79 alpha electrons       79 beta electrons
       nuclear repulsion energy      1770.4964758442 Hartrees.
 NAtoms=   38 NActive=   38 NUniq=   19 SFac= 4.00D+00 NAtFMM=   60 NAOKFM=F Big=F
 ExpMin= 1.03D-01 ExpMax= 8.24D+03 ExpMxC= 2.81D+02 IAcc=3 IRadAn=         5 AccDes= 0.00D+00
 Harris functional with IExCor=  205 and IRadAn=       5 diagonalized for initial guess.
 HarFok:  IExCor=  205 AccDes= 0.00D+00 IRadAn=         5 IDoV= 1 UseB2=F ITyADJ=14
 ICtDFT=  3500011 ScaDFX=  1.000000  1.000000  1.000000  1.000000
 FoFCou: FMM=F IPFlag=           0 FMFlag=      100000 FMFlg1=           0
         NFxFlg=           0 DoJE=T BraDBF=F KetDBF=T FulRan=T
         wScrn=  0.000000 ICntrl=       500 IOpCl=  0 I1Cent=   200000004 NGrid=           0
         NMat0=    1 NMatS0=      1 NMatT0=    0 NMatD0=    1 NMtDS0=    0 NMtDT0=    0
 Petite list used in FoFCou.
 Initial guess orbital symmetries:
       Occupied  (AG) (BU) (BU) (AG) (AG) (BU) (AG) (BU) (AG) (BU)
                 (BU) (AG) (BU) (AG) (BU) (AG) (BU) (AG) (AG) (BU)
                 (AG) (BU) (AG) (BU) (AG) (BU) (AG) (BU) (BU) (AG)
                 (AG) (BU) (AG) (AG) (BU) (BU) (AG) (BU) (AG) (BU)
                 (AG) (BU) (BU) (BU) (AG) (AG) (AG) (AG) (BU) (AG)
                 (BU) (BU) (AG) (BU) (AG) (AG) (BU) (AG) (BU) (AU)
                 (BU) (AG) (BU) (BG) (BU) (AG) (AU) (AG) (BU) (BG)
                 (AG) (BG) (AU) (AU) (BG) (AU) (AU) (BG) (BG)
       Virtual   (AU) (AU) (BG) (BG) (AU) (BG) (BG) (AU) (AU) (AG)
                 (BG) (BU) (BU) (AG) (AG) (BU) (AU) (BU) (AG) (BU)
                 (AG) (BU) (AG) (BU) (BG) (BU) (BU) (AG) (BU) (AG)
                 (AG) (AG) (AG) (BU) (BU) (AG) (BU) (AG) (BU) (AG)
                 (BU) (BU) (AG) (AG) (AU) (BU) (AG) (BG) (BG) (BU)
                 (AG) (BU) (AU) (AG) (AU) (BU) (BG) (AG) (BU) (AU)
                 (AG) (BG) (BU) (AG) (BU) (AG) (AU) (BU) (BU) (BG)
                 (AG) (AU) (BU) (BU) (AG) (AG) (BG) (AU) (BG) (AG)
                 (AG) (BU) (AU) (BG) (BU) (AG) (BG) (AG) (BU) (BU)
                 (AG) (AG) (BU) (AU) (BU) (AU) (BU) (AG) (BU) (BU)
                 (AG) (AG) (BG) (BG) (AU) (AG) (BU) (AG) (BU) (BG)
                 (AU) (BU) (AG) (AU) (BU) (AG) (BU) (AG) (BG) (AU)
                 (BU) (BG) (AG) (BU) (AG) (BU) (AU) (AG) (AU) (AG)
                 (BG) (BG) (BU) (AG) (BU) (BG) (AG) (BU) (AU) (AU)
                 (AG) (BG) (AG) (BG) (BU) (AU) (AG) (AU) (BU) (BU)
                 (AG) (BU) (BG) (BU) (BG) (AG) (AG) (BU) (AG) (AU)
                 (BU) (AG) (AU) (BU) (AG) (BU) (AG) (BU) (BG) (BU)
                 (AG) (AG) (AG) (BG) (AU) (BU) (AG) (AU) (BU) (BU)
                 (AU) (BG) (BU) (AG) (AG) (BU) (BU) (AU) (BG) (AG)
                 (AG) (BG) (BU) (AG) (AU) (BU) (AU) (AG) (BG) (BU)
                 (AG) (BU) (BG) (AU) (BU) (AG) (AU) (BG) (BU) (AG)
                 (BU) (AG) (BG) (BU) (AU) (BG) (AG) (AG) (BU) (AG)
                 (BG) (AG) (BU) (AG) (BU) (BG) (BU) (AU) (AU) (AU)
                 (AG) (AG) (BU) (AG) (AU) (AG) (BU) (BG) (BG) (BU)
                 (BU) (AG) (BU) (BG) (AG) (BG) (BU) (BU) (AG) (AU)
                 (AG) (AG) (BU) (BU) (AU) (BU) (AG) (BU) (AG) (AG)
                 (AU) (BU) (AU) (AG) (BG) (BU) (AG) (BU) (BG) (AG)
                 (BU) (AG) (BU) (BG) (BU) (AG) (AU) (BU) (AG) (BU)
                 (AG) (BU) (BU) (AG) (AU) (BU) (AG) (AG) (BG) (BU)
                 (BU) (AG) (AG) (AU) (BU) (AG) (AG) (BU) (BG) (AG)
                 (BU) (BU) (AG) (BU) (BG) (AG) (AU) (BG) (BU) (AG)
                 (AU) (BU) (AU) (BG) (BU) (AG) (AG) (BG) (AU) (BU)
                 (BG) (AU) (AG) (BU) (AG) (BU) (AU) (AG) (BG) (AU)
                 (BG) (AG) (BU) (AU) (BG) (AG) (BU) (AU) (BU) (BG)
                 (AU) (AG) (BG) (AG) (BU) (AU) (BG) (BU) (AG) (BU)
                 (AG) (BU) (AG) (BU) (AG) (AG) (BU) (AG) (BG) (BU)
                 (AU) (AG) (BU) (AG) (AU) (BU) (BU) (BG) (AG) (AU)
                 (BU) (BU) (BG) (AU) (AU) (BG) (AG) (AG) (AG) (AG)
                 (BU) (BG) (AU) (AG) (BU) (BU) (BG) (AG) (BU) (BU)
                 (AG) (AU) (BU) (BG) (AG) (BG) (AU) (AU) (BG) (AG)
                 (BU) (AU) (BU) (AU) (BG) (BG) (AG) (BG) (AU) (BG)
                 (BU) (AU) (AG) (AG) (BG) (AU) (BU) (AU) (AG) (BG)
                 (BU) (AG) (BU) (AG) (AU) (BU) (AG) (BU) (AG) (AU)
                 (BG) (AG) (BU) (BG) (AU) (AG) (AU) (BU) (BG) (BU)
                 (AG) (BG) (BU) (BG) (AU) (AG) (BG) (BU) (AU) (BG)
                 (BU) (AG) (AU) (AG) (BU) (AG) (BU) (AU) (AG) (BG)
                 (AG) (AU) (BU) (BU) (AU) (BU) (AG) (BG) (BG) (AG)
                 (BU) (AG) (BU) (AG) (BU) (BG) (AU) (AG) (BU) (AU)
                 (AG) (AG) (BG) (BU) (BU) (AG) (BU) (BG) (AU) (AG)
                 (BU) (BG) (AG) (BG) (AG) (BU) (AU) (AG) (BU) (AU)
                 (AG) (BU) (AG) (BG) (AU) (AU) (BU) (AG) (BG) (BU)
                 (AG) (AU) (BU) (AG) (BU) (AU) (BG) (BU) (BG) (BU)
                 (AU) (BU) (AG) (BG) (AG) (BU) (BG) (AG) (AU) (BG)
                 (AU) (BU) (BU) (AG) (BG) (AU) (BG) (AG) (AU) (AG)
                 (AG) (BU) (BU) (AU) (AG) (BU) (BG) (AU) (BG) (AG)
                 (BU) (AG) (AU) (BU) (AG) (AU) (AG) (BG) (BU) (AU)
                 (BU) (BG) (AG) (BG) (AG) (AU) (BU) (AU) (BG) (AG)
                 (BG) (AG) (BU) (AU) (BU) (AG) (AU) (BG) (BU) (BU)
                 (AG) (BU) (AG) (BU) (AG) (BG) (AU) (BU) (AU) (AG)
                 (BG) (BU) (BG) (AU) (AG) (BU) (AG) (BG) (BU) (BG)
                 (AU) (BU) (AG) (AG) (BU) (BG) (BU) (AU) (AG) (AU)
                 (BG) (BG) (BU) (AG) (AU) (BU) (AG) (AU) (BG) (BU)
                 (AG) (AG) (BU) (AU) (AG) (BU) (BU) (AG) (AU) (AG)
                 (BG) (BG) (BU) (AG) (BU) (AG) (AU) (BU) (AG) (BU)
                 (BG) (AU) (BU) (AG) (AG) (BG) (AU) (BU) (AU) (BG)
                 (AG) (BU) (AG) (AU) (BU) (BG) (AG) (BG) (AG) (AU)
                 (BU) (AG) (BU) (AU) (BG) (AG) (BU) (BU) (BG) (BG)
                 (BU) (AU) (AG) (AG) (BG) (BU) (BU) (AG) (AU) (BG)
                 (BU) (AU) (AG) (BG) (BU) (AG) (AG) (BU) (AG) (AU)
                 (AG) (BG) (AU) (BU) (BU) (AG) (BU) (AG) (AU) (BG)
                 (BU) (AG) (BU) (AU) (BU) (AG) (BU) (AU) (BG) (AG)
                 (BU) (BU) (AG) (BG) (AG) (BU) (AU) (BG) (AG) (BG)
                 (AU) (BU) (AG) (BG) (AU) (AG) (BU) (BG) (AU) (AG)
                 (AG) (BU) (AU) (BG) (AG) (BU) (BG) (AU) (BU) (AG)
                 (AG) (BU) (AG) (AG) (BU) (BG) (AU) (BU) (BU) (AG)
                 (BU) (AU) (AG) (BU) (BG) (AG) (BU) (BU) (AG) (BU)
                 (AG) (AG) (AU) (BG) (BU) (BU) (AG) (AG) (BU) (AG)
                 (BG) (AU) (AG) (BU) (BU) (AG) (BU) (BU) (AG) (AG)
                 (BU) (BU) (AG) (BU) (AG) (BU) (BU) (AG) (AG) (AG)
                 (BU) (AG) (BU) (AG) (BU) (AG) (BU) (BU) (AG) (AG)
                 (BU) (AG) (BU) (AG) (BU) (AG) (BU) (BU) (AG) (BU)
                 (AG) (BU) (AG) (AG) (BU) (AG) (BU) (AG) (BU) (BU)
                 (AG) (BU) (AG) (AG) (BU) (BU) (AG) (BU) (AG) (BU)
                 (AG) (BU) (AG) (BU) (AG) (AG) (BU)
 The electronic state of the initial guess is 1-AG.
 Integral accuracy reduced to 1.0D-05 until final iterations.
 Problem detected with inexpensive integrals.
 Switching to full accuracy and repeating last cycle.
 SCF Done:  E(RHF) =  -917.325946217     A.U. after   15 cycles
            NFock= 15  Conv=0.45D-08     -V/T= 2.0020
 ExpMin= 1.03D-01 ExpMax= 8.24D+03 ExpMxC= 2.81D+02 IAcc=3 IRadAn=         5 AccDes= 0.00D+00
 HarFok:  IExCor=  205 AccDes= 0.00D+00 IRadAn=         5 IDoV=-2 UseB2=F ITyADJ=14
 ICtDFT= 12500011 ScaDFX=  1.000000  1.000000  1.000000  1.000000
 GSVD:  LWork=        -768 too small for GESVD, short by        3240 words or        3240 for optimal perf.
 NROrb=    892 NOA=    55 NOB=    55 NVA=   837 NVB=   837

 **** Warning!!: The largest alpha MO coefficient is  0.50940861D+02

 Semi-Direct transformation.
 ModeAB=           4 MOrb=            55 LenV=   20114487502
 LASXX=   4800545973 LTotXX=  4800545973 LenRXX=  9619303633
 LTotAB=  4818757660 MaxLAS=  8687103260 LenRXY=           0
 NonZer= 14419849606 LenScr= 28952796160 LnRSAI=  8687103260
 LnScr1= 17442340864 LExtra=           0 Total=  64701543917
 MaxDsk=          -1 SrtSym=           T ITran=            4
 JobTyp=0 Pass  1:  I=   1 to  55.
 (rs|ai) integrals will be sorted in core.
 ANorm=    0.1530045601D+01
 E2 =    -0.3743616438D+01 EUMP2 =    -0.92106956265533D+03
 CIDS: In Core Option IDoMem=           1.
 Produce multiple copies of IABC intergrals
 FoFJK:  IHMeth= 1 ICntrl=     200 DoSepK=F KAlg= 0 I1Cent=           0 FoldK=F
 IRaf= 730000000 NMat=     344 IRICut=     430 DoRegI=T DoRafI=T ISym2E=-1 IDoP0=3 IntGTp=3.
 FoFCou: FMM=F IPFlag=           0 FMFlag=      100000 FMFlg1=           0
         NFxFlg=           0 DoJE=F BraDBF=F KetDBF=F FulRan=T
         wScrn=  0.000000 ICntrl=       200 IOpCl=  0 I1Cent=           0 NGrid=           0
         NMat0=  344 NMatS0=      0 NMatT0=  172 NMatD0=  344 NMtDS0=    0 NMtDT0=    0
 Petite list used in FoFCou.
 Raff kept on since  72.15% of shell-pairs survive, threshold=   0.20 IRatSp=72.
 MP4(R+Q)=  0.14339608D+00
 E3=       -0.18607590D-01        EUMP3=      -0.92108817025D+03
 E4(DQ)=    0.44771949D-01        UMP4(DQ)=   -0.92104339830D+03
 E4(SDQ)=   0.10984326D-01        UMP4(SDQ)=  -0.92107718592D+03
 DE(Corr)=  -3.6181193     E(Corr)=     -920.94406547    
 NORM(A)=   0.14901474D+01
 DE(Corr)=  -3.7519459     E(CORR)=     -921.07789209     Delta=-1.34D-01
 NORM(A)=   0.15306830D+01
 DE(Corr)=  -3.7419324     E(CORR)=     -921.06787867     Delta= 1.00D-02
 NORM(A)=   0.15356499D+01
 DE(Corr)=  -3.7514327     E(CORR)=     -921.07737893     Delta=-9.50D-03
 NORM(A)=   0.15379308D+01
 DE(Corr)=  -3.7526156     E(CORR)=     -921.07856181     Delta=-1.18D-03
 NORM(A)=   0.15389399D+01
 DE(Corr)=  -3.7527737     E(CORR)=     -921.07871990     Delta=-1.58D-04
 NORM(A)=   0.15392381D+01
 DE(Corr)=  -3.7527876     E(CORR)=     -921.07873379     Delta=-1.39D-05
 NORM(A)=   0.15391942D+01
 DE(Corr)=  -3.7528523     E(CORR)=     -921.07879856     Delta=-6.48D-05
 NORM(A)=   0.15392448D+01
 DE(Corr)=  -3.7528056     E(CORR)=     -921.07875186     Delta= 4.67D-05
 NORM(A)=   0.15392362D+01
 DE(Corr)=  -3.7528218     E(CORR)=     -921.07876802     Delta=-1.62D-05
 NORM(A)=   0.15392374D+01
 DE(Corr)=  -3.7528143     E(CORR)=     -921.07876055     Delta= 7.47D-06
 NORM(A)=   0.15392377D+01
 DE(Corr)=  -3.7528142     E(CORR)=     -921.07876045     Delta= 1.06D-07
 NORM(A)=   0.15392363D+01
 DE(Corr)=  -3.7528140     E(CORR)=     -921.07876026     Delta= 1.88D-07
 NORM(A)=   0.15392357D+01
 DE(Corr)=  -3.7528138     E(CORR)=     -921.07876004     Delta= 2.16D-07
 NORM(A)=   0.15392356D+01
 DE(Corr)=  -3.7528135     E(CORR)=     -921.07875975     Delta= 2.98D-07
 NORM(A)=   0.15392354D+01
 DE(Corr)=  -3.7528136     E(CORR)=     -921.07875986     Delta=-1.13D-07
 NORM(A)=   0.15392353D+01
 DE(Corr)=  -3.7528135     E(CORR)=     -921.07875974     Delta= 1.20D-07
 NORM(A)=   0.15392353D+01
 DE(Corr)=  -3.7528136     E(CORR)=     -921.07875983     Delta=-9.66D-08
 NORM(A)=   0.15392353D+01
 Wavefunction amplitudes converged. E(Corr)=     -921.07875983    
 Largest amplitude= 5.81D-02
 Time for triples= 22602693.25 seconds.
 T4(CCSD)= -0.23303275D+00
 T5(CCSD)=  0.40514287D-02
 CCSD(T)= -0.92130774115D+03
 Discarding MO integrals.

 **********************************************************************

            Population analysis using the SCF Density.

 **********************************************************************

 Orbital symmetries:
       Occupied  (AG) (BU) (AG) (BU) (AG) (BU) (AG) (BU) (AG) (BU)
                 (BU) (AG) (BU) (AG) (AG) (BU) (AG) (BU) (BU) (AG)
                 (BU) (AG) (AG) (BU) (AG) (BU) (AG) (BU) (BU) (AG)
                 (AG) (BU) (AG) (AG) (BU) (BU) (AG) (BU) (AG) (BU)
                 (AG) (BU) (BU) (AG) (BU) (AG) (AG) (AG) (BU) (BU)
                 (AG) (BU) (AG) (AG) (BU) (BU) (AG) (AG) (AU) (BU)
                 (BU) (BU) (AG) (BG) (AG) (BU) (AU) (BU) (AG) (BG)
                 (AG) (BG) (AU) (AU) (BG) (AU) (AU) (BG) (BG)
       Virtual   (AU) (AU) (BG) (BG) (AG) (AU) (BU) (BU) (BG) (AG)
                 (AG) (BU) (BU) (AG) (BG) (AG) (BU) (BU) (AU) (AG)
                 (AU) (AG) (BU) (BG) (BU) (AG) (BU) (AU) (AG) (BU)
                 (AG) (BU) (AG) (BU) (AG) (BG) (BU) (AG) (AG) (BU)
                 (AU) (BG) (AG) (BU) (BU) (AU) (AG) (BU) (BG) (BU)
                 (AU) (AG) (BG) (AG) (AG) (BU) (BG) (AG) (AU) (AU)
                 (AG) (BU) (BU) (BU) (AU) (AG) (BU) (AG) (BG) (BU)
                 (BG) (BU) (AU) (BU) (BG) (AG) (AG) (BU) (AG) (BG)
                 (BU) (AG) (AG) (AU) (BU) (AG) (BU) (BG) (AG) (BU)
                 (BU) (AG) (AU) (BU) (AU) (AG) (BU) (AG) (AU) (BG)
                 (AG) (AG) (BG) (BU) (BU) (AG) (BG) (BU) (AG) (AU)
                 (AU) (BU) (AG) (BU) (AG) (BG) (BU) (AG) (AU) (BU)
                 (BG) (AU) (BU) (AG) (BU) (AU) (AG) (BG) (BG) (AG)
                 (BU) (AG) (BU) (BG) (AU) (AG) (BU) (BG) (AG) (BU)
                 (BU) (BG) (AU) (AU) (AG) (AU) (AG) (BU) (BU) (AG)
                 (BG) (BU) (AG) (BU) (AG) (BU) (BG) (AG) (AG) (BU)
                 (AG) (BU) (AU) (AG) (AG) (BU) (AU) (AG) (BU) (BU)
                 (AG) (BG) (AG) (BU) (AU) (BU) (BG) (AG) (BU) (AG)
                 (AU) (AG) (BU) (AU) (BU) (BG) (AG) (AG) (BU) (BU)
                 (BG) (AU) (AG) (BG) (BU) (AG) (BG) (AU) (BU) (BU)
                 (AU) (BU) (AG) (AG) (BU) (AU) (BG) (AG) (BU) (AG)
                 (AU) (BG) (BU) (BG) (AG) (BU) (AU) (AG) (BG) (AG)
                 (BU) (AG) (BG) (BU) (AG) (BU) (BG) (AU) (AG) (AU)
                 (AG) (BU) (AG) (BU) (AU) (BU) (AG) (BU) (AG) (AU)
                 (BG) (AG) (BU) (AG) (BG) (BU) (BG) (BU) (BU) (AG)
                 (AG) (BU) (BU) (AU) (BG) (AG) (BU) (AU) (AG) (AG)
                 (AU) (BU) (BU) (AG) (BG) (AU) (AG) (BU) (BU) (BG)
                 (AG) (BU) (BG) (AG) (BU) (BU) (AG) (AU) (BU) (AG)
                 (AG) (AG) (BU) (AU) (AG) (BU) (AG) (BG) (BU) (BU)
                 (AG) (AG) (BU) (AU) (BU) (AG) (BU) (AG) (BG) (AG)
                 (BU) (BU) (AG) (BU) (BG) (AG) (BU) (AG) (BU) (AG)
                 (AU) (AG) (BU) (BU) (AU) (BG) (AG) (AU) (BU) (BG)
                 (BU) (AG) (BG) (AG) (AU) (AG) (BU) (BG) (AU) (AG)
                 (AU) (BU) (AU) (BG) (BU) (BG) (AU) (AG) (BG) (AU)
                 (BG) (AU) (BG) (AG) (BU) (AU) (BG) (BU) (AG) (BU)
                 (AG) (BU) (AG) (AG) (BU) (AG) (BU) (AG) (BU) (BG)
                 (AU) (AG) (BU) (BU) (AG) (AU) (BU) (AG) (BU) (BU)
                 (BG) (AU) (BG) (AU) (AG) (AU) (AG) (AG) (AG) (BG)
                 (BU) (AU) (AG) (BG) (BU) (BG) (BU) (BU) (AG) (BU)
                 (AG) (AU) (BG) (BG) (BU) (AG) (AU) (AU) (BG) (AU)
                 (AU) (BG) (AG) (BG) (AG) (BU) (AU) (BG) (BU) (BG)
                 (AU) (BG) (AU) (BU) (AG) (AG) (AU) (BU) (AG) (BG)
                 (AG) (BU) (AU) (BU) (BU) (AG) (BU) (AG) (AU) (BG)
                 (AG) (BG) (AG) (AU) (BU) (AU) (BG) (AG) (BU) (BG)
                 (BU) (BG) (AG) (AU) (BU) (BG) (AG) (AU) (BG) (BU)
                 (AU) (AG) (BU) (AG) (AU) (BG) (BU) (AU) (BU) (AU)
                 (AG) (BG) (BU) (AG) (BG) (AG) (BU) (AG) (BG) (AG)
                 (AG) (BU) (BU) (AU) (AU) (BU) (BU) (AG) (BG) (AG)
                 (BU) (AG) (AG) (BU) (AU) (BG) (BU) (AG) (BU) (BG)
                 (AG) (BG) (BU) (AU) (BU) (AU) (AG) (AG) (BU) (AU)
                 (BG) (AG) (AU) (BU) (AG) (AG) (BU) (BG) (AG) (AU)
                 (BU) (BG) (AU) (BU) (AG) (BG) (AG) (BU) (AU) (BG)
                 (BU) (BU) (BG) (AG) (AU) (BU) (AG) (BG) (AG) (BU)
                 (AU) (BG) (BU) (BU) (AU) (BG) (AU) (AG) (AG) (AG)
                 (BU) (AG) (AU) (BU) (BU) (BG) (AG) (AU) (BG) (AG)
                 (BU) (AU) (AU) (AG) (BU) (AG) (AG) (BG) (BU) (BG)
                 (AG) (AU) (BU) (BG) (AG) (AU) (BG) (BU) (AU) (BG)
                 (AU) (AG) (AG) (AU) (BU) (BU) (AG) (BG) (BU) (BU)
                 (AG) (AU) (BG) (BU) (AU) (BU) (AG) (BG) (BG) (BU)
                 (AG) (AU) (BG) (AG) (BG) (AG) (AU) (BU) (AU) (BU)
                 (BG) (BG) (AG) (AU) (BU) (BU) (AG) (AG) (BG) (BU)
                 (AU) (AU) (BG) (BU) (AG) (AG) (BU) (BU) (AU) (AG)
                 (BG) (BU) (AG) (AU) (AG) (BG) (BU) (BU) (AG) (BU)
                 (AU) (AG) (BG) (AU) (AG) (BU) (BU) (BG) (AG) (AG)
                 (BU) (AG) (AG) (AU) (BU) (BG) (BU) (AU) (BG) (AG)
                 (BU) (AU) (AG) (AU) (AG) (BU) (AU) (BG) (BU) (BU)
                 (AG) (AG) (AG) (BG) (BU) (BG) (BU) (BG) (BU) (AG)
                 (BU) (AG) (AU) (AG) (BG) (BU) (AU) (BU) (BG) (AG)
                 (AG) (BU) (AU) (AG) (BU) (AG) (BG) (BU) (AU) (AG)
                 (BG) (AG) (BU) (AU) (BU) (AG) (BU) (AG) (BG) (BU)
                 (AU) (AU) (AG) (BU) (BU) (AU) (AG) (BU) (BG) (BU)
                 (AG) (AG) (BU) (BG) (AG) (AU) (BG) (BU) (BG) (AU)
                 (BG) (AG) (BU) (AU) (AG) (BG) (AG) (AU) (BU) (AG)
                 (BU) (AU) (BG) (AG) (AG) (BG) (BU) (AG) (AU) (BU)
                 (AG) (BU) (BG) (AU) (AG) (AG) (BU) (BU) (BU) (AU)
                 (AG) (BU) (AG) (BG) (BU) (BU) (AG) (BU) (AG) (BU)
                 (AU) (AG) (BG) (AG) (BU) (BU) (AG) (BG) (AG) (AU)
                 (BU) (AG) (BU) (AG) (BU) (AG) (BU) (AG) (BU) (AG)
                 (BU) (BU) (AG) (BU) (AG) (BU) (AG) (BU) (AG) (BU)
                 (AG) (AG) (BU) (AG) (AG) (BU) (BU) (AG) (BU) (BU)
                 (AG) (BU) (AG) (AG) (BU) (AG) (BU) (BU) (AG) (BU)
                 (AG) (BU) (AG) (AG) (BU) (AG) (BU) (BU) (AG) (BU)
                 (AG) (BU) (AG) (AG) (BU) (BU) (AG) (BU) (AG) (BU)
                 (AG) (BU) (AG) (BU) (AG) (AG) (BU)
 The electronic state is 1-AG.
 Alpha  occ. eigenvalues --  -11.25432 -11.25430 -11.25233 -11.25232 -11.25147
 Alpha  occ. eigenvalues --  -11.25058 -11.24914 -11.24914 -11.24879 -11.24874
 Alpha  occ. eigenvalues --  -11.24257 -11.24257 -11.24130 -11.24130 -11.24102
 Alpha  occ. eigenvalues --  -11.24102 -11.24096 -11.24096 -11.24031 -11.24031
 Alpha  occ. eigenvalues --  -11.23996 -11.23996 -11.23921 -11.23921  -1.20239
 Alpha  occ. eigenvalues --   -1.17374  -1.14477  -1.12514  -1.09890  -1.06928
 Alpha  occ. eigenvalues --   -1.04216  -1.03419  -1.01698  -0.99709  -0.98883
 Alpha  occ. eigenvalues --   -0.94982  -0.88430  -0.86310  -0.85900  -0.83632
 Alpha  occ. eigenvalues --   -0.81693  -0.81339  -0.77287  -0.73342  -0.72362
 Alpha  occ. eigenvalues --   -0.71026  -0.70040  -0.67110  -0.65745  -0.65256
 Alpha  occ. eigenvalues --   -0.64456  -0.62384  -0.61271  -0.60201  -0.60161
 Alpha  occ. eigenvalues --   -0.58931  -0.57615  -0.56817  -0.56657  -0.55781
 Alpha  occ. eigenvalues --   -0.55379  -0.54605  -0.54081  -0.53116  -0.50807
 Alpha  occ. eigenvalues --   -0.50557  -0.49172  -0.48292  -0.47528  -0.47205
 Alpha  occ. eigenvalues --   -0.45669  -0.43251  -0.40394  -0.36219  -0.36049
 Alpha  occ. eigenvalues --   -0.34061  -0.30844  -0.28870  -0.23470
 Alpha virt. eigenvalues --    0.03044   0.07781   0.09315   0.12344   0.14222
 Alpha virt. eigenvalues --    0.14260   0.14347   0.14689   0.14810   0.15529
 Alpha virt. eigenvalues --    0.15651   0.17475   0.17562   0.19226   0.19458
 Alpha virt. eigenvalues --    0.19485   0.20616   0.23176   0.23597   0.24370
 Alpha virt. eigenvalues --    0.26850   0.27801   0.28584   0.31693   0.33073
 Alpha virt. eigenvalues --    0.33156   0.35817   0.36814   0.37105   0.37354
 Alpha virt. eigenvalues --    0.37804   0.38107   0.38763   0.38765   0.38857
 Alpha virt. eigenvalues --    0.39599   0.40462   0.40577   0.41140   0.41474
 Alpha virt. eigenvalues --    0.41513   0.42545   0.42893   0.43743   0.44043
 Alpha virt. eigenvalues --    0.44237   0.44246   0.44835   0.45756   0.46438
 Alpha virt. eigenvalues --    0.46556   0.46602   0.47371   0.47926   0.48285
 Alpha virt. eigenvalues --    0.48546   0.48963   0.49671   0.50065   0.50604
 Alpha virt. eigenvalues --    0.50735   0.50925   0.51071   0.52077   0.52672
 Alpha virt. eigenvalues --    0.52845   0.53843   0.54154   0.54980   0.55150
 Alpha virt. eigenvalues --    0.55677   0.56296   0.56859   0.56893   0.57005
 Alpha virt. eigenvalues --    0.57155   0.57172   0.57463   0.58144   0.58166
 Alpha virt. eigenvalues --    0.59367   0.59932   0.60204   0.60493   0.60803
 Alpha virt. eigenvalues --    0.61119   0.61233   0.61536   0.61979   0.62622
 Alpha virt. eigenvalues --    0.62940   0.62964   0.63215   0.63887   0.64272
 Alpha virt. eigenvalues --    0.64935   0.65800   0.66103   0.66626   0.67143
 Alpha virt. eigenvalues --    0.68386   0.68725   0.68842   0.69028   0.70549
 Alpha virt. eigenvalues --    0.70982   0.70987   0.72634   0.72718   0.73303
 Alpha virt. eigenvalues --    0.73599   0.74083   0.74218   0.76976   0.77236
 Alpha virt. eigenvalues --    0.77490   0.77652   0.78090   0.79053   0.79472
 Alpha virt. eigenvalues --    0.79703   0.81800   0.82274   0.83122   0.83785
 Alpha virt. eigenvalues --    0.84865   0.85069   0.85543   0.85966   0.86009
 Alpha virt. eigenvalues --    0.87706   0.87871   0.88280   0.88853   0.90047
 Alpha virt. eigenvalues --    0.90371   0.90547   0.91105   0.91612   0.91693
 Alpha virt. eigenvalues --    0.92316   0.92332   0.92401   0.93820   0.94129
 Alpha virt. eigenvalues --    0.94818   0.96342   0.96511   0.97586   0.99086
 Alpha virt. eigenvalues --    0.99354   0.99719   1.00194   1.00555   1.00979
 Alpha virt. eigenvalues --    1.01444   1.01641   1.01709   1.02921   1.02994
 Alpha virt. eigenvalues --    1.03351   1.03862   1.04180   1.04253   1.05439
 Alpha virt. eigenvalues --    1.05495   1.06491   1.07081   1.07739   1.08141
 Alpha virt. eigenvalues --    1.08223   1.09538   1.10343   1.10771   1.11120
 Alpha virt. eigenvalues --    1.11529   1.11666   1.12009   1.12688   1.13132
 Alpha virt. eigenvalues --    1.14637   1.14829   1.15282   1.15562   1.16299
 Alpha virt. eigenvalues --    1.16383   1.16941   1.18058   1.18922   1.19093
 Alpha virt. eigenvalues --    1.19326   1.19789   1.19837   1.20157   1.20177
 Alpha virt. eigenvalues --    1.22451   1.23043   1.23211   1.23720   1.24115
 Alpha virt. eigenvalues --    1.25201   1.25338   1.25726   1.26511   1.26912
 Alpha virt. eigenvalues --    1.27278   1.27755   1.28191   1.29573   1.29973
 Alpha virt. eigenvalues --    1.30138   1.30780   1.32340   1.33674   1.33893
 Alpha virt. eigenvalues --    1.35445   1.35488   1.36352   1.36491   1.36607
 Alpha virt. eigenvalues --    1.38555   1.38643   1.41256   1.42821   1.43243
 Alpha virt. eigenvalues --    1.43759   1.45120   1.45848   1.46449   1.47186
 Alpha virt. eigenvalues --    1.47557   1.47701   1.48060   1.48638   1.49222
 Alpha virt. eigenvalues --    1.49877   1.50219   1.51829   1.51861   1.52087
 Alpha virt. eigenvalues --    1.52346   1.53446   1.53694   1.54306   1.54484
 Alpha virt. eigenvalues --    1.54742   1.56315   1.56619   1.57044   1.57084
 Alpha virt. eigenvalues --    1.58543   1.59200   1.60025   1.60193   1.60427
 Alpha virt. eigenvalues --    1.60883   1.61385   1.61934   1.62817   1.64281
 Alpha virt. eigenvalues --    1.64880   1.65354   1.65863   1.67397   1.67945
 Alpha virt. eigenvalues --    1.68286   1.68307   1.69136   1.71378   1.71529
 Alpha virt. eigenvalues --    1.72320   1.75001   1.75815   1.76009   1.77980
 Alpha virt. eigenvalues --    1.78366   1.78421   1.79052   1.80594   1.82163
 Alpha virt. eigenvalues --    1.83047   1.84132   1.84634   1.84951   1.86469
 Alpha virt. eigenvalues --    1.86763   1.88963   1.89209   1.89522   1.92154
 Alpha virt. eigenvalues --    1.93321   1.93990   1.94956   1.96377   1.96699
 Alpha virt. eigenvalues --    1.98812   1.99646   2.03329   2.04273   2.04761
 Alpha virt. eigenvalues --    2.06258   2.09597   2.10150   2.12466   2.13545
 Alpha virt. eigenvalues --    2.13865   2.14307   2.16835   2.18544   2.20126
 Alpha virt. eigenvalues --    2.20201   2.23213   2.23867   2.28379   2.29963
 Alpha virt. eigenvalues --    2.32369   2.33453   2.34577   2.35115   2.35527
 Alpha virt. eigenvalues --    2.36985   2.37163   2.38551   2.38609   2.40377
 Alpha virt. eigenvalues --    2.42076   2.42150   2.43673   2.44222   2.45085
 Alpha virt. eigenvalues --    2.47063   2.47124   2.48852   2.49306   2.49530
 Alpha virt. eigenvalues --    2.50212   2.52642   2.52686   2.52688   2.54999
 Alpha virt. eigenvalues --    2.56061   2.56704   2.57866   2.58133   2.60327
 Alpha virt. eigenvalues --    2.62412   2.62638   2.62698   2.62797   2.64446
 Alpha virt. eigenvalues --    2.66163   2.67225   2.69275   2.70519   2.70772
 Alpha virt. eigenvalues --    2.71119   2.71364   2.72500   2.72997   2.74760
 Alpha virt. eigenvalues --    2.74867   2.75575   2.76206   2.77214   2.77437
 Alpha virt. eigenvalues --    2.78137   2.78389   2.78845   2.79127   2.80618
 Alpha virt. eigenvalues --    2.80953   2.81053   2.81822   2.81994   2.82692
 Alpha virt. eigenvalues --    2.82858   2.83215   2.84002   2.84561   2.84603
 Alpha virt. eigenvalues --    2.85597   2.86582   2.86614   2.86634   2.86872
 Alpha virt. eigenvalues --    2.87809   2.88979   2.90074   2.90130   2.91535
 Alpha virt. eigenvalues --    2.91998   2.92540   2.92979   2.93971   2.94087
 Alpha virt. eigenvalues --    2.95181   2.95397   2.96817   2.97663   2.98370
 Alpha virt. eigenvalues --    2.98882   2.99797   3.00091   3.00427   3.01380
 Alpha virt. eigenvalues --    3.01733   3.02590   3.02672   3.02984   3.03188
 Alpha virt. eigenvalues --    3.04094   3.04956   3.05189   3.05394   3.05898
 Alpha virt. eigenvalues --    3.06280   3.06812   3.07043   3.08127   3.08797
 Alpha virt. eigenvalues --    3.09829   3.10105   3.11350   3.11466   3.12131
 Alpha virt. eigenvalues --    3.13584   3.15118   3.16136   3.16524   3.16690
 Alpha virt. eigenvalues --    3.17347   3.19335   3.19461   3.20465   3.20534
 Alpha virt. eigenvalues --    3.21453   3.21511   3.22396   3.22709   3.23102
 Alpha virt. eigenvalues --    3.24315   3.24544   3.24656   3.25180   3.25279
 Alpha virt. eigenvalues --    3.25942   3.26197   3.26320   3.27358   3.27717
 Alpha virt. eigenvalues --    3.28025   3.28605   3.30352   3.30368   3.30880
 Alpha virt. eigenvalues --    3.31188   3.31398   3.31884   3.32532   3.33215
 Alpha virt. eigenvalues --    3.33415   3.33479   3.33836   3.33996   3.34097
 Alpha virt. eigenvalues --    3.34218   3.34566   3.36413   3.36720   3.36872
 Alpha virt. eigenvalues --    3.37076   3.37164   3.37237   3.37793   3.37956
 Alpha virt. eigenvalues --    3.38698   3.39128   3.39438   3.40073   3.40559
 Alpha virt. eigenvalues --    3.41386   3.41779   3.41975   3.42934   3.43613
 Alpha virt. eigenvalues --    3.43895   3.43947   3.44065   3.44208   3.46174
 Alpha virt. eigenvalues --    3.47284   3.47451   3.47558   3.47996   3.48444
 Alpha virt. eigenvalues --    3.48459   3.48864   3.50426   3.50714   3.50780
 Alpha virt. eigenvalues --    3.50956   3.51526   3.51946   3.52253   3.52410
 Alpha virt. eigenvalues --    3.54524   3.55230   3.55987   3.56585   3.56942
 Alpha virt. eigenvalues --    3.58148   3.58189   3.58744   3.58833   3.59231
 Alpha virt. eigenvalues --    3.59525   3.60531   3.60959   3.61410   3.61661
 Alpha virt. eigenvalues --    3.61968   3.62470   3.63718   3.64351   3.64706
 Alpha virt. eigenvalues --    3.65307   3.65545   3.66372   3.66606   3.67170
 Alpha virt. eigenvalues --    3.67236   3.68709   3.69480   3.70215   3.70537
 Alpha virt. eigenvalues --    3.70809   3.70993   3.71043   3.72165   3.73160
 Alpha virt. eigenvalues --    3.73486   3.75095   3.75899   3.76190   3.76800
 Alpha virt. eigenvalues --    3.76888   3.78067   3.78327   3.79544   3.80169
 Alpha virt. eigenvalues --    3.80399   3.80471   3.81762   3.82812   3.83262
 Alpha virt. eigenvalues --    3.84257   3.84863   3.85749   3.85759   3.87342
 Alpha virt. eigenvalues --    3.88271   3.88360   3.88939   3.89201   3.89416
 Alpha virt. eigenvalues --    3.89717   3.90445   3.91108   3.92737   3.94036
 Alpha virt. eigenvalues --    3.94045   3.95213   3.95341   3.96569   3.97206
 Alpha virt. eigenvalues --    3.97381   3.98445   3.98990   3.99847   4.02606
 Alpha virt. eigenvalues --    4.03322   4.03747   4.03983   4.04213   4.05563
 Alpha virt. eigenvalues --    4.05674   4.05845   4.06509   4.07244   4.07411
 Alpha virt. eigenvalues --    4.07414   4.07724   4.09284   4.09376   4.12421
 Alpha virt. eigenvalues --    4.12671   4.13324   4.13341   4.14369   4.14443
 Alpha virt. eigenvalues --    4.15092   4.15210   4.15222   4.15225   4.16121
 Alpha virt. eigenvalues --    4.17194   4.18036   4.18775   4.18990   4.19317
 Alpha virt. eigenvalues --    4.19555   4.20645   4.20974   4.22955   4.23580
 Alpha virt. eigenvalues --    4.25945   4.26330   4.26755   4.26972   4.28104
 Alpha virt. eigenvalues --    4.28726   4.29132   4.29152   4.29424   4.29458
 Alpha virt. eigenvalues --    4.29840   4.30154   4.31733   4.32043   4.32373
 Alpha virt. eigenvalues --    4.32597   4.33512   4.35307   4.36106   4.36413
 Alpha virt. eigenvalues --    4.36637   4.37650   4.38192   4.38479   4.40006
 Alpha virt. eigenvalues --    4.40470   4.40979   4.42222   4.42837   4.43645
 Alpha virt. eigenvalues --    4.43893   4.44378   4.44503   4.46068   4.46293
 Alpha virt. eigenvalues --    4.47725   4.48701   4.48900   4.50181   4.50682
 Alpha virt. eigenvalues --    4.50847   4.52053   4.52624   4.53490   4.53876
 Alpha virt. eigenvalues --    4.53913   4.54822   4.55835   4.56400   4.56966
 Alpha virt. eigenvalues --    4.58734   4.58744   4.58879   4.59902   4.60063
 Alpha virt. eigenvalues --    4.60556   4.60643   4.61381   4.61382   4.63648
 Alpha virt. eigenvalues --    4.64035   4.64658   4.65313   4.66104   4.66224
 Alpha virt. eigenvalues --    4.66691   4.67095   4.67938   4.68163   4.68972
 Alpha virt. eigenvalues --    4.69417   4.69995   4.71018   4.72359   4.73288
 Alpha virt. eigenvalues --    4.73679   4.74182   4.74556   4.74634   4.75496
 Alpha virt. eigenvalues --    4.77270   4.78598   4.79672   4.80879   4.81739
 Alpha virt. eigenvalues --    4.82084   4.84441   4.84715   4.87959   4.88641
 Alpha virt. eigenvalues --    4.89102   4.89252   4.90277   4.91290   4.93942
 Alpha virt. eigenvalues --    4.94391   4.98658   4.98787   4.99668   5.00205
 Alpha virt. eigenvalues --    5.00806   5.01107   5.03918   5.04254   5.05338
 Alpha virt. eigenvalues --    5.06529   5.08335   5.08437   5.08945   5.09347
 Alpha virt. eigenvalues --    5.10795   5.11618   5.12138   5.14429   5.16056
 Alpha virt. eigenvalues --    5.16274   5.16360   5.17889   5.18947   5.19676
 Alpha virt. eigenvalues --    5.20953   5.21123   5.21426   5.21430   5.22666
 Alpha virt. eigenvalues --    5.25207   5.28170   5.30036   5.30155   5.30769
 Alpha virt. eigenvalues --    5.32290   5.33577   5.34152   5.37071   5.37913
 Alpha virt. eigenvalues --    5.39479   5.39496   5.42105   5.42123   5.42512
 Alpha virt. eigenvalues --    5.45990   5.46260   5.47352   5.47963   5.49577
 Alpha virt. eigenvalues --    5.53208   5.53880   5.55026   5.55980   5.59652
 Alpha virt. eigenvalues --    5.64616   5.65427   5.67665   5.67758   5.68796
 Alpha virt. eigenvalues --    5.70565   5.72520   5.76368   5.76446   5.80525
 Alpha virt. eigenvalues --    5.82141   5.85523   5.86789   5.88026   5.90359
 Alpha virt. eigenvalues --    5.90836   5.94414   5.96694   5.97423   6.00355
 Alpha virt. eigenvalues --    6.01654   6.07669   6.07741   6.10521   6.20011
 Alpha virt. eigenvalues --    6.20803   6.23229   6.24329   6.28140   6.31165
 Alpha virt. eigenvalues --    6.32538   6.33957   6.37500   6.37590   6.44658
 Alpha virt. eigenvalues --    6.45057   6.47432   6.48055   6.52834   6.60706
 Alpha virt. eigenvalues --    6.65908   6.69674   6.79172   6.84023   6.89571
 Alpha virt. eigenvalues --    7.00323   7.22201   7.44458   8.24064   9.71973
 Alpha virt. eigenvalues --   11.04661  11.81618  12.36367  12.37759  13.01615
 Alpha virt. eigenvalues --   13.08529  13.33403  13.35287  13.71184  13.72331
 Alpha virt. eigenvalues --   13.74757  13.97938  14.31946  14.56935  14.96072
 Alpha virt. eigenvalues --   15.09221  15.73467  15.93406  15.96409  16.55470
 Alpha virt. eigenvalues --   16.77754  16.89088
          Condensed to atoms (all electrons):
 Mulliken charges:
               1
     1  C   -0.164985
     2  C   -0.174984
     3  C   -0.161587
     4  C    0.020918
     5  C    0.126046
     6  C   -0.174394
     7  C   -0.248960
     8  C    0.119515
     9  C   -0.180349
    10  C   -0.180799
    11  C    0.052998
    12  C    0.020918
    13  C   -0.161587
    14  C   -0.174984
    15  C   -0.164985
    16  C   -0.174394
    17  C    0.126046
    18  C   -0.248960
    19  C    0.119515
    20  C   -0.180349
    21  C   -0.180799
    22  C    0.052998
    23  C   -0.027955
    24  C   -0.027955
    25  H    0.150053
    26  H    0.147040
    27  H    0.145458
    28  H    0.138425
    29  H    0.130426
    30  H    0.137562
    31  H    0.145570
    32  H    0.145458
    33  H    0.147040
    34  H    0.150053
    35  H    0.138425
    36  H    0.130426
    37  H    0.137562
    38  H    0.145570
 Sum of Mulliken charges =  -0.00000
 Mulliken charges with hydrogens summed into heavy atoms:
               1
     1  C   -0.014931
     2  C   -0.027944
     3  C   -0.016129
     4  C    0.020918
     5  C    0.126046
     6  C   -0.035969
     7  C   -0.118534
     8  C    0.119515
     9  C   -0.042786
    10  C   -0.035229
    11  C    0.052998
    12  C    0.020918
    13  C   -0.016129
    14  C   -0.027944
    15  C   -0.014931
    16  C   -0.035969
    17  C    0.126046
    18  C   -0.118534
    19  C    0.119515
    20  C   -0.042786
    21  C   -0.035229
    22  C    0.052998
    23  C   -0.027955
    24  C   -0.027955
 Electronic spatial extent (au):  <R**2>=           8542.3138
 Charge=             -0.0000 electrons
 Dipole moment (field-independent basis, Debye):
    X=              0.0000    Y=              0.0000    Z=              0.0000  Tot=              0.0000
 Unable to Open any file for archive entry.
 1\1\GINC-GPU\SP\RCCSD(T)-FC\CC-pVTZ\C24H14\XUHJ\22-Aug-2025\0\\#T CCSD
 (T)/cc-pVTZ symm=veryloose geom=allcheck\\c1ccc2c(c1)cc1ccc3c4ccccc4cc
 4ccc2c1c43\\0,1\C,0,-1.055824,-5.727381,0.\C,0,-2.309256,-5.063206,0.\
 C,0,-2.372309,-3.685691,0.\C,0,-1.194031,-2.885371,0.\C,0,0.074078,-3.
 564591,0.\C,0,0.105581,-4.990652,0.\C,0,1.26738,-2.813253,0.\C,0,1.256
 095,-1.422514,0.\C,0,2.470081,-0.657153,0.\C,0,2.452666,0.70562,0.\C,0
 ,1.220138,1.447259,0.\C,0,1.194031,2.885371,0.\C,0,2.372309,3.685691,0
 .\C,0,2.309256,5.063206,0.\C,0,1.055824,5.727381,0.\C,0,-0.105581,4.99
 0652,0.\C,0,-0.074078,3.564591,0.\C,0,-1.26738,2.813253,0.\C,0,-1.2560
 95,1.422514,0.\C,0,-2.470081,0.657153,0.\C,0,-2.452666,-0.70562,0.\C,0
 ,-1.220138,-1.447259,0.\C,0,0.,-0.71855,0.\C,0,0.,0.71855,0.\H,0,-1.01
 778,-6.820616,0.\H,0,-3.233363,-5.648576,0.\H,0,-3.353097,-3.208353,0.
 \H,0,1.080162,-5.488369,0.\H,0,2.225984,-3.341098,0.\H,0,3.422331,-1.1
 95901,0.\H,0,3.402087,1.241937,0.\H,0,3.353097,3.208353,0.\H,0,3.23336
 3,5.648576,0.\H,0,1.01778,6.820616,0.\H,0,-1.080162,5.488369,0.\H,0,-2
 .225984,3.341098,0.\H,0,-3.422331,1.195901,0.\H,0,-3.402087,-1.241937,
 0.\\Version=ES64L-G16RevC.01\State=1-AG\HF=-917.3259462\MP2=-921.06956
 27\MP3=-921.0881702\MP4D=-921.1867944\MP4DQ=-921.0433983\MP4SDQ=-921.0
 771859\CCSD=-921.0787598\CCSD(T)=-921.3077412\RMSD=4.534e-09\PG=C02H [
 SGH(C24H14)]\\@
 The archive entry for this job was punched.


 ONLY A FOOL KNOWS EVERYTHING.

               -- THE CHEMIST ANALYST, SEPTEMBER 1946
 Job cpu time:     302 days 14 hours 22 minutes  6.0 seconds.
 Elapsed time:       9 days 12 hours  0 minutes  2.9 seconds.
 File lengths (MBytes):  RWF= 513866 Int=      0 D2E=      0 Chk=     60 Scr=      1
 Normal termination of Gaussian 16 at Fri Aug 22 13:46:46 2025.
