 Entering Gaussian System, Link 0=g16
 Initial command:
 /opt/g16/l1.exe "/tmp/Gau-2841790.inp" -scrdir="/tmp/"
 Entering Link 1 = /opt/g16/l1.exe PID=   2841792.
  
 Copyright (c) 1988-2019, Gaussian, Inc.  All Rights Reserved.
  
 This is part of the Gaussian(R) 16 program.  It is based on
 the Gaussian(R) 09 system (copyright 2009, Gaussian, Inc.),
 the Gaussian(R) 03 system (copyright 2003, Gaussian, Inc.),
 the Gaussian(R) 98 system (copyright 1998, Gaussian, Inc.),
 the Gaussian(R) 94 system (copyright 1995, Gaussian, Inc.),
 the Gaussian 92(TM) system (copyright 1992, Gaussian, Inc.),
 the Gaussian 90(TM) system (copyright 1990, Gaussian, Inc.),
 the Gaussian 88(TM) system (copyright 1988, Gaussian, Inc.),
 the Gaussian 86(TM) system (copyright 1986, Carnegie Mellon
 University), and the Gaussian 82(TM) system (copyright 1983,
 Carnegie Mellon University). Gaussian is a federally registered
 trademark of Gaussian, Inc.
  
 This software contains proprietary and confidential information,
 including trade secrets, belonging to Gaussian, Inc.
  
 This software is provided under written license and may be
 used, copied, transmitted, or stored only in accord with that
 written license.
  
 The following legend is applicable only to US Government
 contracts under FAR:
  
                    RESTRICTED RIGHTS LEGEND
  
 Use, reproduction and disclosure by the US Government is
 subject to restrictions as set forth in subparagraphs (a)
 and (c) of the Commercial Computer Software - Restricted
 Rights clause in FAR 52.227-19.
  
 Gaussian, Inc.
 340 Quinnipiac St., Bldg. 40, Wallingford CT 06492
  
  
 ---------------------------------------------------------------
 Warning -- This program may not be used in any manner that
 competes with the business of Gaussian, Inc. or will provide
 assistance to any competitor of Gaussian, Inc.  The licensee
 of this program is prohibited from giving any competitor of
 Gaussian, Inc. access to this program.  By using this program,
 the user acknowledges that Gaussian, Inc. is engaged in the
 business of creating and licensing software in the field of
 computational chemistry and represents and warrants to the
 licensee that it is not a competitor of Gaussian, Inc. and that
 it will not use this program in any manner prohibited above.
 ---------------------------------------------------------------
  

 Cite this work as:
 Gaussian 16, Revision C.01,
 M. J. Frisch, G. W. Trucks, H. B. Schlegel, G. E. Scuseria, 
 M. A. Robb, J. R. Cheeseman, G. Scalmani, V. Barone, 
 G. A. Petersson, H. Nakatsuji, X. Li, M. Caricato, A. V. Marenich, 
 J. Bloino, B. G. Janesko, R. Gomperts, B. Mennucci, H. P. Hratchian, 
 J. V. Ortiz, A. F. Izmaylov, J. L. Sonnenberg, D. Williams-Young, 
 F. Ding, F. Lipparini, F. Egidi, J. Goings, B. Peng, A. Petrone, 
 T. Henderson, D. Ranasinghe, V. G. Zakrzewski, J. Gao, N. Rega, 
 G. Zheng, W. Liang, M. Hada, M. Ehara, K. Toyota, R. Fukuda, 
 J. Hasegawa, M. Ishida, T. Nakajima, Y. Honda, O. Kitao, H. Nakai, 
 T. Vreven, K. Throssell, J. A. Montgomery, Jr., J. E. Peralta, 
 F. Ogliaro, M. J. Bearpark, J. J. Heyd, E. N. Brothers, K. N. Kudin, 
 V. N. Staroverov, T. A. Keith, R. Kobayashi, J. Normand, 
 K. Raghavachari, A. P. Rendell, J. C. Burant, S. S. Iyengar, 
 J. Tomasi, M. Cossi, J. M. Millam, M. Klene, C. Adamo, R. Cammi, 
 J. W. Ochterski, R. L. Martin, K. Morokuma, O. Farkas, 
 J. B. Foresman, and D. J. Fox, Gaussian, Inc., Wallingford CT, 2019.
 
 ******************************************
 Gaussian 16:  ES64L-G16RevC.01  3-Jul-2019
                27-Jan-2025 
 ******************************************
 %nprocshared=16
 Will use up to   16 processors via shared memory.
 %mem=89600MB
 %chk=RYQHWGXLBQHJST-UHFFFAOYSA-N-1.chk
 ---------------------------------
 #T CCSD(T)/cc-pVDZ symm=veryloose
 ---------------------------------
 --------------------------------------------------
 c1cc2cc3cccc4c5cccc6cc7cccc8c(c1)c2c(c34)c(c78)c65
 --------------------------------------------------
 Symbolic Z-matrix:
 Charge =  0 Multiplicity = 1
 C                     0.       -3.65254  -2.89519 
 C                     0.       -2.46143  -3.58187 
 C                     0.       -1.22377  -2.87478 
 C                     0.        0.       -3.55655 
 C                     0.        1.22377  -2.87478 
 C                     0.        2.46143  -3.58187 
 C                     0.        3.65254  -2.89519 
 C                     0.        3.66377  -1.48278 
 C                     0.        2.48892  -0.73603 
 C                     0.        2.48892   0.73603 
 C                     0.        3.66377   1.48278 
 C                     0.        3.65254   2.89519 
 C                     0.        2.46143   3.58187 
 C                     0.        1.22377   2.87478 
 C                     0.        0.        3.55655 
 C                     0.       -1.22377   2.87478 
 C                     0.       -2.46143   3.58187 
 C                     0.       -3.65254   2.89519 
 C                     0.       -3.66377   1.48278 
 C                     0.       -2.48892   0.73603 
 C                     0.       -2.48892  -0.73603 
 C                     0.       -3.66377  -1.48278 
 C                     0.       -1.23107  -1.43252 
 C                     0.        0.       -0.72626 
 C                     0.        1.23107  -1.43252 
 C                     0.        0.        0.72626 
 C                     0.       -1.23107   1.43252 
 C                     0.        1.23107   1.43252 
 H                     0.       -4.60286  -3.43696 
 H                     0.       -2.44198  -4.67552 
 H                     0.        0.       -4.65064 
 H                     0.        2.44198  -4.67552 
 H                     0.        4.60286  -3.43696 
 H                     0.        4.63159  -0.97998 
 H                     0.        4.63159   0.97998 
 H                     0.        4.60286   3.43696 
 H                     0.        2.44198   4.67552 
 H                     0.        0.        4.65064 
 H                     0.       -2.44198   4.67552 
 H                     0.       -4.60286   3.43696 
 H                     0.       -4.63159   0.97998 
 H                     0.       -4.63159  -0.97998 
 
                    Distance matrix (angstroms):
                    1          2          3          4          5
     1  C    0.000000
     2  C    1.374870   0.000000
     3  C    2.428853   1.425401   0.000000
     4  C    3.711929   2.461559   1.400860   0.000000
     5  C    4.876348   3.752419   2.447538   1.400860   0.000000
     6  C    6.152406   4.922858   3.752419   2.461559   1.425401
     7  C    7.305072   6.152406   4.876348   3.711929   2.428853
     8  C    7.451389   6.474891   5.081899   4.209953   2.809140
     9  C    6.509949   5.710057   4.284662   3.761654   2.484931
    10  C    7.134647   6.568878   5.178998   4.961946   3.826038
    11  C    8.526131   7.947874   6.548007   6.230410   4.994193
    12  C    9.321613   8.906894   7.554527   7.413895   6.260307
    13  C    8.906894   8.692157   7.434312   7.550864   6.574201
    14  C    7.554527   7.434312   6.248836   6.546724   5.749566
    15  C    7.413895   7.550864   6.546724   7.113090   6.546724
    16  C    6.260307   6.574201   5.749566   6.546724   6.248836
    17  C    6.585661   7.163732   6.574201   7.550864   7.434312
    18  C    5.790370   6.585661   6.260307   7.413895   7.554527
    19  C    4.377980   5.205408   4.994193   6.230410   6.548007
    20  C    3.813097   4.317982   3.826038   4.961946   5.178998
    21  C    2.452746   2.845971   2.484931   3.761654   4.284662
    22  C    1.412449   2.419045   2.809140   4.209953   5.081899
    23  C    2.828942   2.476590   1.442286   2.455001   2.847167
    24  C    4.247969   3.770026   2.472599   2.830281   2.472599
    25  C    5.097940   4.272499   2.847167   2.455001   1.442286
    26  C    5.143531   4.961715   3.803308   4.282809   3.803308
    27  C    4.959082   5.163120   4.307304   5.138701   4.957725
    28  C    6.525226   6.227243   4.957725   5.138701   4.307304
    29  H    1.093906   2.146324   3.425533   4.604409   5.853683
    30  H    2.152915   1.093827   2.174095   2.686143   4.084159
    31  H    4.052487   2.683452   2.156685   1.094098   2.156685
    32  H    6.349228   5.023891   4.084159   2.686143   2.174095
    33  H    8.273151   7.065771   5.853683   4.604409   3.425533
    34  H    8.502628   7.555174   6.154303   5.300025   3.899164
    35  H    9.145688   8.433346   7.010307   6.483184   5.145137
    36  H   10.404210   9.958317   8.589976   8.372301   7.159354
    37  H    9.718985   9.603532   8.393139   8.586626   7.647948
    38  H    8.383349   8.592604   7.624280   8.207188   7.624280
    39  H    7.666878   8.257409   7.647948   8.586626   8.393139
    40  H    6.403061   7.338232   7.159354   8.372301   8.589976
    41  H    3.996932   5.051737   5.145137   6.483184   7.010307
    42  H    2.150939   3.388123   3.899164   5.300025   6.154303
                    6          7          8          9         10
     6  C    0.000000
     7  C    1.374870   0.000000
     8  C    2.419045   1.412449   0.000000
     9  C    2.845971   2.452746   1.392088   0.000000
    10  C    4.317982   3.813097   2.510654   1.472056   0.000000
    11  C    5.205408   4.377980   2.965562   2.510654   1.392088
    12  C    6.585661   5.790370   4.377980   3.813097   2.452746
    13  C    7.163732   6.585661   5.205408   4.317982   2.845971
    14  C    6.574201   6.260307   4.994193   3.826038   2.484931
    15  C    7.550864   7.413895   6.230410   4.961946   3.761654
    16  C    7.434312   7.554527   6.548007   5.178998   4.284662
    17  C    8.692157   8.906894   7.947874   6.568878   5.710057
    18  C    8.906894   9.321613   8.526131   7.134647   6.509949
    19  C    7.947874   8.526131   7.904895   6.540542   6.197840
    20  C    6.568878   7.134647   6.540542   5.190938   4.977840
    21  C    5.710057   6.509949   6.197840   4.977840   5.190938
    22  C    6.474891   7.451389   7.327538   6.197840   6.540542
    23  C    4.272499   5.097940   4.895095   3.784627   4.305913
    24  C    3.770026   4.247969   3.741059   2.488939   2.886697
    25  C    2.476590   2.828942   2.433220   1.437806   2.506944
    26  C    4.961715   5.143531   4.278210   2.886697   2.488939
    27  C    6.227243   6.525226   5.697226   4.305913   3.784627
    28  C    5.163120   4.959082   3.796970   2.506944   1.437806
    29  H    7.065771   8.273151   8.494464   7.588698   8.228434
    30  H    5.023891   6.349228   6.890118   6.311367   7.321107
    31  H    2.683452   4.052487   4.843403   4.638850   5.933881
    32  H    1.093827   2.152915   3.418531   3.939772   5.411752
    33  H    2.146324   1.093906   2.168112   3.429835   4.677881
    34  H    3.388123   2.150939   1.090631   2.156509   2.745125
    35  H    5.051737   3.996932   2.646106   2.745125   2.156509
    36  H    7.338232   6.403061   5.008568   4.677881   3.429835
    37  H    8.257409   7.666878   6.278331   5.411752   3.939772
    38  H    8.592604   8.383349   7.144375   5.933881   4.638850
    39  H    9.603532   9.718985   8.672071   7.321107   6.311367
    40  H    9.958317  10.404210   9.619821   8.228434   7.588698
    41  H    8.433346   9.145688   8.653214   7.324363   7.124684
    42  H    7.555174   8.502628   8.310579   7.124684   7.324363
                   11         12         13         14         15
    11  C    0.000000
    12  C    1.412449   0.000000
    13  C    2.419045   1.374870   0.000000
    14  C    2.809140   2.428853   1.425401   0.000000
    15  C    4.209953   3.711929   2.461559   1.400860   0.000000
    16  C    5.081899   4.876348   3.752419   2.447538   1.400860
    17  C    6.474891   6.152406   4.922858   3.752419   2.461559
    18  C    7.451389   7.305072   6.152406   4.876348   3.711929
    19  C    7.327538   7.451389   6.474891   5.081899   4.209953
    20  C    6.197840   6.509949   5.710057   4.284662   3.761654
    21  C    6.540542   7.134647   6.568878   5.178998   4.961946
    22  C    7.904895   8.526131   7.947874   6.548007   6.230410
    23  C    5.697226   6.525226   6.227243   4.957725   5.138701
    24  C    4.278210   5.143531   4.961715   3.803308   4.282809
    25  C    3.796970   4.959082   5.163120   4.307304   5.138701
    26  C    3.741059   4.247969   3.770026   2.472599   2.830281
    27  C    4.895095   5.097940   4.272499   2.847167   2.455001
    28  C    2.433220   2.828942   2.476590   1.442286   2.455001
    29  H    9.619821  10.404210   9.958317   8.589976   8.372301
    30  H    8.672071   9.718985   9.603532   8.393139   8.586626
    31  H    7.144375   8.383349   8.592604   7.624280   8.207188
    32  H    6.278331   7.666878   8.257409   7.647948   8.586626
    33  H    5.008568   6.403061   7.338232   7.159354   8.372301
    34  H    2.646106   3.996932   5.051737   5.145137   6.483184
    35  H    1.090631   2.150939   3.388123   3.899164   5.300025
    36  H    2.168112   1.093906   2.146324   3.425533   4.604409
    37  H    3.418531   2.152915   1.093827   2.174095   2.686143
    38  H    4.843403   4.052487   2.683452   2.156685   1.094098
    39  H    6.890118   6.349228   5.023891   4.084159   2.686143
    40  H    8.494464   8.273151   7.065771   5.853683   4.604409
    41  H    8.310579   8.502628   7.555174   6.154303   5.300025
    42  H    8.653214   9.145688   8.433346   7.010307   6.483184
                   16         17         18         19         20
    16  C    0.000000
    17  C    1.425401   0.000000
    18  C    2.428853   1.374870   0.000000
    19  C    2.809140   2.419045   1.412449   0.000000
    20  C    2.484931   2.845971   2.452746   1.392088   0.000000
    21  C    3.826038   4.317982   3.813097   2.510654   1.472056
    22  C    4.994193   5.205408   4.377980   2.965562   2.510654
    23  C    4.307304   5.163120   4.959082   3.796970   2.506944
    24  C    3.803308   4.961715   5.143531   4.278210   2.886697
    25  C    4.957725   6.227243   6.525226   5.697226   4.305913
    26  C    2.472599   3.770026   4.247969   3.741059   2.488939
    27  C    1.442286   2.476590   2.828942   2.433220   1.437806
    28  C    2.847167   4.272499   5.097940   4.895095   3.784627
    29  H    7.159354   7.338232   6.403061   5.008568   4.677881
    30  H    7.647948   8.257409   7.666878   6.278331   5.411752
    31  H    7.624280   8.592604   8.383349   7.144375   5.933881
    32  H    8.393139   9.603532   9.718985   8.672071   7.321107
    33  H    8.589976   9.958317  10.404210   9.619821   8.228434
    34  H    7.010307   8.433346   9.145688   8.653214   7.324363
    35  H    6.154303   7.555174   8.502628   8.310579   7.124684
    36  H    5.853683   7.065771   8.273151   8.494464   7.588698
    37  H    4.084159   5.023891   6.349228   6.890118   6.311367
    38  H    2.156685   2.683452   4.052487   4.843403   4.638850
    39  H    2.174095   1.093827   2.152915   3.418531   3.939772
    40  H    3.425533   2.146324   1.093906   2.168112   3.429835
    41  H    3.899164   3.388123   2.150939   1.090631   2.156509
    42  H    5.145137   5.051737   3.996932   2.646106   2.745125
                   21         22         23         24         25
    21  C    0.000000
    22  C    1.392088   0.000000
    23  C    1.437806   2.433220   0.000000
    24  C    2.488939   3.741059   1.419267   0.000000
    25  C    3.784627   4.895095   2.462136   1.419267   0.000000
    26  C    2.886697   4.278210   2.485127   1.452528   2.485127
    27  C    2.506944   3.796970   2.865030   2.485127   3.777633
    28  C    4.305913   5.697226   3.777633   2.485127   2.865030
    29  H    3.429835   2.168112   3.922596   5.341738   6.168669
    30  H    3.939772   3.418531   3.461703   4.643262   4.899831
    31  H    4.638850   4.843403   3.445559   3.924379   3.445559
    32  H    6.311367   6.890118   4.899831   4.643262   3.461703
    33  H    7.588698   8.494464   6.168669   5.341738   3.922596
    34  H    7.124684   8.310579   5.880093   4.638530   3.430497
    35  H    7.324363   8.653214   6.339626   4.935876   4.169373
    36  H    8.228434   9.619821   7.599110   6.206346   5.922901
    37  H    7.321107   8.672071   7.127367   5.928113   6.226909
    38  H    5.933881   7.144375   6.206476   5.376907   6.206476
    39  H    5.411752   6.278331   6.226909   5.928113   7.127367
    40  H    4.677881   5.008568   5.922901   6.206346   7.599110
    41  H    2.745125   2.646106   4.169373   4.935876   6.339626
    42  H    2.156509   1.090631   3.430497   4.638530   5.880093
                   26         27         28         29         30
    26  C    0.000000
    27  C    1.419267   0.000000
    28  C    1.419267   2.462136   0.000000
    29  H    6.206346   5.922901   7.599110   0.000000
    30  H    5.928113   6.226909   7.127367   2.490667   0.000000
    31  H    5.376907   6.206476   6.206476   4.760179   2.442105
    32  H    5.928113   7.127367   6.226909   7.152881   4.883956
    33  H    6.206346   7.599110   5.922901   9.205712   7.152881
    34  H    4.935876   6.339626   4.169373   9.555714   7.980746
    35  H    4.638530   5.880093   3.430497  10.236421   9.056491
    36  H    5.341738   6.168669   3.922596  11.488950  10.744396
    37  H    4.643262   4.899831   3.461703  10.744396  10.549643
    38  H    3.924379   3.445559   3.445559   9.305678   9.640569
    39  H    4.643262   3.461703   4.899831   8.395341   9.351040
    40  H    5.341738   3.922596   6.168669   6.873924   8.395341
    41  H    4.638530   3.430497   5.880093   4.417038   6.064577
    42  H    4.935876   4.169373   6.339626   2.457147   4.295507
                   31         32         33         34         35
    31  H    0.000000
    32  H    2.442105   0.000000
    33  H    4.760179   2.490667   0.000000
    34  H    5.909766   4.295507   2.457147   0.000000
    35  H    7.290784   6.064577   4.417038   1.959966   0.000000
    36  H    9.305678   8.395341   6.873924   4.417038   2.457147
    37  H    9.640569   9.351040   8.395341   6.064577   4.295507
    38  H    9.301286   9.640569   9.305678   7.290784   5.909766
    39  H    9.640569  10.549643  10.744396   9.056491   7.980746
    40  H    9.305678  10.744396  11.488950  10.236421   9.555714
    41  H    7.290784   9.056491  10.236421   9.468253   9.263172
    42  H    5.909766   7.980746   9.555714   9.263172   9.468253
                   36         37         38         39         40
    36  H    0.000000
    37  H    2.490667   0.000000
    38  H    4.760179   2.442105   0.000000
    39  H    7.152881   4.883956   2.442105   0.000000
    40  H    9.205712   7.152881   4.760179   2.490667   0.000000
    41  H    9.555714   7.980746   5.909766   4.295507   2.457147
    42  H   10.236421   9.056491   7.290784   6.064577   4.417038
                   41         42
    41  H    0.000000
    42  H    1.959966   0.000000
 Framework group  D2H[C2"(HCC.CCH),SG(C24H12)]
 Deg. of freedom    21
                         Standard orientation:                         
 ---------------------------------------------------------------------
 Center     Atomic      Atomic             Coordinates (Angstroms)
 Number     Number       Type             X           Y           Z
 ---------------------------------------------------------------------
      1          6           0        0.000000    3.652536    2.895185
      2          6           0        0.000000    2.461429    3.581866
      3          6           0        0.000000    1.223769    2.874783
      4          6           0        0.000000    0.000000    3.556545
      5          6           0       -0.000000   -1.223769    2.874783
      6          6           0       -0.000000   -2.461429    3.581866
      7          6           0       -0.000000   -3.652536    2.895185
      8          6           0        0.000000   -3.663769    1.482781
      9          6           0        0.000000   -2.488920    0.736028
     10          6           0        0.000000   -2.488920   -0.736028
     11          6           0        0.000000   -3.663769   -1.482781
     12          6           0       -0.000000   -3.652536   -2.895185
     13          6           0       -0.000000   -2.461429   -3.581866
     14          6           0       -0.000000   -1.223769   -2.874783
     15          6           0        0.000000    0.000000   -3.556545
     16          6           0        0.000000    1.223769   -2.874783
     17          6           0        0.000000    2.461429   -3.581866
     18          6           0        0.000000    3.652536   -2.895185
     19          6           0        0.000000    3.663769   -1.482781
     20          6           0        0.000000    2.488920   -0.736028
     21          6           0        0.000000    2.488920    0.736028
     22          6           0        0.000000    3.663769    1.482781
     23          6           0        0.000000    1.231068    1.432515
     24          6           0        0.000000    0.000000    0.726264
     25          6           0       -0.000000   -1.231068    1.432515
     26          6           0        0.000000    0.000000   -0.726264
     27          6           0        0.000000    1.231068   -1.432515
     28          6           0       -0.000000   -1.231068   -1.432515
     29          1           0        0.000000    4.602856    3.436962
     30          1           0        0.000000    2.441978    4.675520
     31          1           0        0.000000    0.000000    4.650643
     32          1           0       -0.000000   -2.441978    4.675520
     33          1           0       -0.000000   -4.602856    3.436962
     34          1           0        0.000000   -4.631586    0.979983
     35          1           0        0.000000   -4.631586   -0.979983
     36          1           0       -0.000000   -4.602856   -3.436962
     37          1           0       -0.000000   -2.441978   -4.675520
     38          1           0        0.000000    0.000000   -4.650643
     39          1           0        0.000000    2.441978   -4.675520
     40          1           0        0.000000    4.602856   -3.436962
     41          1           0        0.000000    4.631586   -0.979983
     42          1           0        0.000000    4.631586    0.979983
 ---------------------------------------------------------------------
 Rotational constants (GHZ):           0.2356796           0.2283270           0.1159725
   462 basis functions,  1022 primitive gaussians,   490 cartesian basis functions
    91 alpha electrons       91 beta electrons
       nuclear repulsion energy      2315.2631198518 Hartrees.
 NAtoms=   42 NActive=   42 NUniq=   12 SFac= 4.00D+00 NAtFMM=   60 NAOKFM=F Big=F
 ExpMin= 1.22D-01 ExpMax= 6.67D+03 ExpMxC= 2.28D+02 IAcc=3 IRadAn=         5 AccDes= 0.00D+00
 Harris functional with IExCor=  205 and IRadAn=       5 diagonalized for initial guess.
 HarFok:  IExCor=  205 AccDes= 0.00D+00 IRadAn=         5 IDoV= 1 UseB2=F ITyADJ=14
 ICtDFT=  3500011 ScaDFX=  1.000000  1.000000  1.000000  1.000000
 FoFCou: FMM=F IPFlag=           0 FMFlag=      100000 FMFlg1=           0
         NFxFlg=           0 DoJE=T BraDBF=F KetDBF=T FulRan=T
         wScrn=  0.000000 ICntrl=       500 IOpCl=  0 I1Cent=   200000004 NGrid=           0
         NMat0=    1 NMatS0=      1 NMatT0=    0 NMatD0=    1 NMtDS0=    0 NMtDT0=    0
 Petite list used in FoFCou.
 Initial guess orbital symmetries:
       Occupied  (B3G) (B1U) (B2U) (AG) (B1U) (B3G) (AG) (B2U)
                 (B1U) (B3G) (AG) (B2U) (B1U) (AG) (B1U) (AG) (B3G)
                 (B2U) (AG) (B1U) (AG) (B2U) (B3G) (B1U) (B1U)
                 (B3G) (AG) (B2U) (AG) (B1U) (B2U) (B3G) (AG) (AG)
                 (B1U) (B2U) (B1U) (B2U) (AG) (B3G) (B3G) (B1U)
                 (AG) (B2U) (B1U) (AG) (B2U) (B3G) (B3G) (AG) (B1U)
                 (B2U) (AG) (B1U) (B3G) (B2U) (AG) (B1U) (B2U)
                 (B1U) (B3G) (AG) (B3G) (B2U) (B2U) (AG) (B3G)
                 (B3U) (AG) (B1U) (AG) (B2G) (B1G) (B3G) (B1U)
                 (B2U) (B1U) (B2U) (AU) (B3G) (AG) (B3U) (B3U)
                 (B2G) (B1G) (B2G) (B1G) (AU) (B3U) (AU) (B2G)
       Virtual   (B3U) (B1G) (B2G) (B1G) (AU) (B3U) (AU) (B3U)
                 (B2G) (B2G) (B1G) (AG) (B2U) (B1U) (B3G) (AG)
                 (B1U) (AU) (B3U) (B2U) (B1U) (B2U) (AG) (B3G)
                 (AG) (B2U) (B3G) (B1U) (AG) (AG) (B2G) (B2U) (B3G)
                 (B1U) (B1U) (AG) (B2U) (B3G) (B2U) (B1U) (AG)
                 (B1U) (B2U) (B3G) (AG) (B3G) (B1U) (B3G) (B1U)
                 (B2U) (B3G) (AG) (B2U) (AG) (B1U) (B3U) (B3G)
                 (B1U) (B2G) (B1G) (AG) (B2U) (B3G) (B1U) (B2U)
                 (AU) (B1U) (B3U) (AG) (B3G) (AG) (B1U) (B2U) (B3U)
                 (AG) (B2U) (AG) (B1U) (B3G) (B3G) (B2G) (B2U)
                 (B1G) (AG) (B2G) (B2U) (B1U) (AG) (B1G) (B1U)
                 (B3U) (AG) (B2U) (B3G) (AU) (B3U) (B1G) (AU) (B3G)
                 (B1U) (B2G) (AG) (B2U) (B3U) (B2G) (AG) (B1G)
                 (B1U) (B2U) (AU) (AG) (B1U) (B3G) (B3U) (B3G)
                 (B1U) (B2G) (B2U) (AU) (AG) (B3G) (B2G) (B1U)
                 (B1G) (B3U) (B1G) (B3G) (AU) (B1U) (B3U) (B3G)
                 (AG) (B2U) (B1U) (AG) (AU) (B1G) (B3G) (B2G) (B2U)
                 (B3U) (B1U) (AG) (B2U) (B3G) (B2U) (AU) (B2G)
                 (B3U) (AG) (B2G) (B1G) (B1U) (B1G) (AG) (AU) (B2U)
                 (B3U) (B2G) (B1U) (B3U) (B3G) (AG) (B1U) (B3G)
                 (B2U) (AU) (B1G) (B1G) (B2G) (B1U) (B2U) (AG)
                 (AU) (B3U) (B3G) (B2U) (AG) (B3G) (AG) (B1U) (B2U)
                 (B3G) (AG) (B1U) (B3G) (B1U) (B2U) (B2G) (AG)
                 (B1U) (B3U) (B1G) (AU) (B2G) (AG) (B3G) (B3U)
                 (B2U) (B1U) (B2U) (AG) (AU) (AG) (B2G) (B2U) (B3G)
                 (B1U) (B3G) (AG) (B1G) (B2U) (B1U) (B3U) (AG)
                 (B1G) (B2G) (AU) (B2U) (B3G) (B3G) (B1U) (AG)
                 (B3U) (B2U) (B2G) (AG) (B2U) (B1U) (B3G) (B1G)
                 (B1U) (B3G) (B2U) (AG) (B1U) (B2G) (B3U) (B3G)
                 (B1U) (B2U) (AG) (AU) (AG) (B2G) (B3G) (B2U) (B1G)
                 (B3U) (B2U) (AU) (B1U) (B3U) (AG) (AU) (B1G) (B3G)
                 (AU) (B1U) (B1G) (AG) (B2U) (B2G) (B3G) (B1U)
                 (AG) (B3U) (B2U) (B1U) (AG) (B2G) (B3G) (B1G)
                 (AG) (B1U) (B3G) (AU) (B3U) (B2U) (B1U) (B3G)
                 (B2G) (B3G) (B2U) (B1U) (B3G) (B1U) (B3U) (AG)
                 (B3G) (B2G) (B2U) (B1G) (B1U) (AG) (AU) (B1U)
                 (B2U) (B3G) (B2U) (AG) (B2G) (AU) (B2U) (AG) (B3U)
                 (B1G) (B3G) (B1U) (B1U) (AG) (B2U) (B3G) (AG)
                 (B1U) (B2U) (AU) (B3U) (B2U) (B2G) (B3G) (B1G)
                 (B1U) (AG) (B3G) (AG) (B2U) (B2U) (B3G) (B1U)
                 (B1U) (B2G) (AU) (AG) (B3G) (B1U) (B2U) (AG) (B3G)
                 (B1U) (AG) (B2U) (B3G) (AG) (B2U) (B1U) (AG) (B3G)
                 (B1U) (AG) (B3G) (B2U) (B2U) (AG) (B1U) (B2U)
                 (B3G) (B1U) (B1U) (AG) (B3G) (B1U) (B3G) (B1U)
                 (AG) (B1U) (B2U) (B3G) (AG) (B1U) (B3G)
 The electronic state of the initial guess is 1-AG.
 Integral accuracy reduced to 1.0D-05 until final iterations.
 Initial convergence to 1.0D-05 achieved.  Increase integral accuracy.
 SCF Done:  E(RHF) =  -1068.61746498     A.U. after   23 cycles
            NFock= 23  Conv=0.69D-08     -V/T= 2.0011
 ExpMin= 1.22D-01 ExpMax= 6.67D+03 ExpMxC= 2.28D+02 IAcc=3 IRadAn=         5 AccDes= 0.00D+00
 HarFok:  IExCor=  205 AccDes= 0.00D+00 IRadAn=         5 IDoV=-2 UseB2=F ITyADJ=14
 ICtDFT= 12500011 ScaDFX=  1.000000  1.000000  1.000000  1.000000
 GSVD:  LWork=       -1008 too small for GESVD, short by        4340 words or        4340 for optimal perf.
 NROrb=    434 NOA=    63 NOB=    63 NVA=   371 NVB=   371

 **** Warning!!: The largest alpha MO coefficient is  0.32565940D+02

 Semi-Direct transformation.
 ModeAB=           4 MOrb=            63 LenV=   11739007710
 LASXX=    302823414 LTotXX=   302823414 LenRXX=   608249343
 LTotAB=   305425929 MaxLAS=   641853450 LenRXY=           0
 NonZer=   911072757 LenScr=  1371968512 LnRSAI=   641853450
 LnScr1=   966556672 LExtra=           0 Total=   3588627977
 MaxDsk=          -1 SrtSym=           T ITran=            4
 JobTyp=0 Pass  1:  I=   1 to  63.
 (rs|ai) integrals will be sorted in core.
 ANorm=    0.1559683745D+01
 E2 =    -0.3612926114D+01 EUMP2 =    -0.10722303910893D+04
 CIDS: In Core Option IDoMem=           1.
 Produce multiple copies of IABC intergrals
 MP4(R+Q)=  0.12602456D+00
 E3=       -0.42127340D-01        EUMP3=      -0.10722725184D+04
 E4(DQ)=    0.19649811D-01        UMP4(DQ)=   -0.10722528686D+04
 E4(SDQ)=  -0.12386462D-01        UMP4(SDQ)=  -0.10722849049D+04
 DE(Corr)=  -3.5288529     E(Corr)=     -1072.1463178    
 NORM(A)=   0.15271965D+01
 DE(Corr)=  -3.6633468     E(CORR)=     -1072.2808117     Delta=-1.34D-01
 NORM(A)=   0.15734533D+01
 DE(Corr)=  -3.6575830     E(CORR)=     -1072.2750480     Delta= 5.76D-03
 NORM(A)=   0.15796429D+01
 DE(Corr)=  -3.6687759     E(CORR)=     -1072.2862409     Delta=-1.12D-02
 NORM(A)=   0.15823816D+01
 DE(Corr)=  -3.6702530     E(CORR)=     -1072.2877180     Delta=-1.48D-03
 NORM(A)=   0.15839185D+01
 DE(Corr)=  -3.6705237     E(CORR)=     -1072.2879886     Delta=-2.71D-04
 NORM(A)=   0.15843978D+01
 DE(Corr)=  -3.6705673     E(CORR)=     -1072.2880322     Delta=-4.36D-05
 NORM(A)=   0.15843789D+01
 DE(Corr)=  -3.6706514     E(CORR)=     -1072.2881163     Delta=-8.41D-05
 NORM(A)=   0.15844729D+01
 DE(Corr)=  -3.6705822     E(CORR)=     -1072.2880472     Delta= 6.91D-05
 NORM(A)=   0.15844630D+01
 DE(Corr)=  -3.6706107     E(CORR)=     -1072.2880757     Delta=-2.85D-05
 NORM(A)=   0.15844693D+01
 DE(Corr)=  -3.6705963     E(CORR)=     -1072.2880613     Delta= 1.44D-05
 NORM(A)=   0.15844732D+01
 DE(Corr)=  -3.6705972     E(CORR)=     -1072.2880621     Delta=-8.35D-07
 NORM(A)=   0.15844709D+01
 DE(Corr)=  -3.6705973     E(CORR)=     -1072.2880622     Delta=-1.19D-07
 NORM(A)=   0.15844706D+01
 DE(Corr)=  -3.6705969     E(CORR)=     -1072.2880618     Delta= 4.00D-07
 NORM(A)=   0.15844706D+01
 DE(Corr)=  -3.6705964     E(CORR)=     -1072.2880614     Delta= 4.57D-07
 NORM(A)=   0.15844700D+01
 DE(Corr)=  -3.6705966     E(CORR)=     -1072.2880616     Delta=-1.96D-07
 NORM(A)=   0.15844699D+01
 DE(Corr)=  -3.6705964     E(CORR)=     -1072.2880613     Delta= 2.40D-07
 NORM(A)=   0.15844698D+01
 DE(Corr)=  -3.6705964     E(CORR)=     -1072.2880614     Delta=-6.30D-08
 NORM(A)=   0.15844696D+01
 Wavefunction amplitudes converged. E(Corr)=     -1072.2880614    
 Largest amplitude= 7.68D-02
 Time for triples=   166489.43 seconds.
 T4(CCSD)= -0.20105284D+00
 T5(CCSD)=  0.38980410D-02
 CCSD(T)= -0.10724852162D+04
 Discarding MO integrals.

 **********************************************************************

            Population analysis using the SCF Density.

 **********************************************************************

 Orbital symmetries:
       Occupied  (AG) (B2U) (AG) (B1U) (B3G) (B1U) (B2U) (B3G)
                 (AG) (B1U) (AG) (B1U) (B3G) (B2U) (B1U) (B3G)
                 (AG) (B2U) (B1U) (B3G) (AG) (B2U) (B1U) (AG) (B3G)
                 (B2U) (B1U) (AG) (AG) (B1U) (B2U) (B3G) (AG) (AG)
                 (B1U) (B2U) (B1U) (B2U) (AG) (B3G) (B3G) (B1U)
                 (AG) (B2U) (B1U) (AG) (B2U) (B3G) (B3G) (AG) (B1U)
                 (B2U) (B1U) (AG) (B3G) (B2U) (AG) (B1U) (B2U)
                 (AG) (B1U) (B3G) (B3G) (B2U) (B2U) (AG) (B3U)
                 (AG) (B3G) (AG) (B1U) (B2G) (B1U) (B1G) (B3G)
                 (B1U) (B2U) (B2U) (AU) (B3G) (AG) (B3U) (B3U)
                 (B2G) (B1G) (B2G) (B1G) (AU) (B3U) (AU) (B2G)
       Virtual   (B3U) (B1G) (B1G) (B2G) (AU) (B3U) (AG) (B2U)
                 (B1U) (AU) (B3G) (B3U) (AG) (B1U) (B2U) (AG) (B3G)
                 (B2G) (B2U) (B2G) (B1U) (AG) (B1G) (B3G) (B1U)
                 (B2U) (B3U) (B3G) (AG) (AU) (B1U) (AG) (B2U) (B3G)
                 (B1U) (B2U) (AG) (B1U) (AG) (B2U) (B2U) (B1U)
                 (B2G) (AG) (B3G) (B1U) (B3G) (B3G) (B2U) (AG)
                 (B1U) (AG) (B3G) (B2U) (AG) (B1U) (B3U) (B1G)
                 (B2U) (AG) (B1U) (B2G) (B3G) (AG) (B1U) (AU) (B3U)
                 (B3G) (B1U) (B3U) (B3G) (B2U) (AG) (B1G) (B1U)
                 (B2G) (B2U) (B3G) (B2U) (B1U) (AG) (B2U) (B2G)
                 (B3G) (AG) (B1G) (B2U) (B3U) (B1U) (AU) (B1U)
                 (AG) (B2U) (AG) (AU) (B3U) (B1G) (B2G) (B3G) (B3U)
                 (B1U) (B2G) (AG) (B3G) (B1G) (AU) (B1U) (B2U)
                 (B3U) (B2U) (AG) (B3G) (B3G) (B1U) (AG) (B2G)
                 (AG) (AU) (B2U) (B2G) (B1U) (B1G) (B1U) (B3U)
                 (B3G) (B1G) (AU) (B3G) (B3U) (B3G) (B1U) (AG)
                 (B2U) (AU) (B1G) (B1U) (B3U) (AG) (B2U) (B2G)
                 (B2U) (B2U) (B1U) (B3G) (AG) (AU) (B3G) (B3U)
                 (B1U) (B2G) (B2G) (B1G) (AG) (B3G) (B1G) (AG)
                 (AG) (B2U) (AU) (B3U) (B1U) (B2G) (B2U) (B1U)
                 (B3U) (B3G) (B1U) (AU) (B1G) (AG) (B1G) (B2U)
                 (B2G) (B2U) (B3G) (AG) (AU) (B3U) (B3G) (AG) (B1U)
                 (B2U) (B1U) (AG) (B3G) (B1U) (B3G) (B2U) (AG)
                 (B1U) (B2G) (AU) (B3U) (B2G) (B1G) (AG) (B3U)
                 (B1U) (B3G) (B2U) (B2G) (AG) (B2U) (B3G) (AG)
                 (AU) (B2U) (B1U) (B3U) (B1G) (AG) (B1G) (B2U)
                 (AU) (B3G) (B1U) (B2G) (AG) (B2U) (B3G) (B1U)
                 (B3G) (B3U) (B2G) (AG) (B2U) (AG) (B1U) (B3G)
                 (B2U) (B1G) (B3G) (B3U) (B2G) (B2U) (B1U) (AU)
                 (B2G) (AG) (B1G) (B2U) (B1U) (B3G) (B1U) (AU)
                 (AG) (B3U) (B3G) (AG) (B2U) (B1U) (B3U) (AG) (B2U)
                 (B3G) (AU) (B1U) (B1G) (AU) (B2G) (AG) (B1G) (B3G)
                 (B1U) (B2U) (AG) (B2U) (B3U) (B1U) (B1G) (B3G)
                 (AG) (B2G) (B3G) (B1U) (B1U) (B3U) (AG) (B3G)
                 (AU) (B2G) (B3G) (B2U) (B1U) (B2U) (B3G) (AG)
                 (B3U) (B1U) (B3G) (B2U) (B2G) (B1G) (B1U) (AG)
                 (B1U) (AU) (B2U) (B3G) (B2U) (AG) (AU) (B2G) (B2U)
                 (AG) (B3U) (B1G) (B3G) (B1U) (B1U) (B2U) (AG)
                 (B3G) (AG) (B1U) (B2U) (AU) (B3U) (B2G) (B3G)
                 (B1G) (B3G) (B2U) (AG) (B1U) (B1U) (B3G) (AG)
                 (B2U) (B2U) (B1U) (B2G) (AU) (AG) (B3G) (B1U)
                 (B2U) (AG) (B1U) (B3G) (AG) (B2U) (B3G) (AG) (B2U)
                 (B1U) (AG) (B1U) (AG) (B3G) (B3G) (B2U) (B2U)
                 (B1U) (AG) (B3G) (B1U) (B2U) (AG) (B1U) (B3G)
                 (B1U) (B3G) (B1U) (AG) (B3G) (B1U) (B2U) (AG)
                 (B1U) (B3G)
 The electronic state is 1-AG.
 Alpha  occ. eigenvalues --  -11.25870 -11.25869 -11.25824 -11.25798 -11.25795
 Alpha  occ. eigenvalues --  -11.25744 -11.25533 -11.25532 -11.25515 -11.25508
 Alpha  occ. eigenvalues --  -11.25377 -11.25376 -11.25371 -11.25371 -11.24748
 Alpha  occ. eigenvalues --  -11.24748 -11.24748 -11.24748 -11.24604 -11.24604
 Alpha  occ. eigenvalues --  -11.24603 -11.24603 -11.24555 -11.24555 -11.24550
 Alpha  occ. eigenvalues --  -11.24549 -11.24546 -11.24546  -1.21477  -1.17770
 Alpha  occ. eigenvalues --   -1.17240  -1.13938  -1.11127  -1.10456  -1.07751
 Alpha  occ. eigenvalues --   -1.06520  -1.03003  -1.01987  -1.00474  -1.00470
 Alpha  occ. eigenvalues --   -0.99022  -0.93089  -0.90433  -0.87202  -0.86110
 Alpha  occ. eigenvalues --   -0.85592  -0.84659  -0.82223  -0.77538  -0.77448
 Alpha  occ. eigenvalues --   -0.75244  -0.72765  -0.72060  -0.71295  -0.67912
 Alpha  occ. eigenvalues --   -0.67249  -0.65633  -0.64467  -0.64279  -0.62950
 Alpha  occ. eigenvalues --   -0.62928  -0.61647  -0.59524  -0.59346  -0.58944
 Alpha  occ. eigenvalues --   -0.58186  -0.57668  -0.56203  -0.56015  -0.55147
 Alpha  occ. eigenvalues --   -0.54677  -0.53157  -0.52700  -0.52335  -0.52015
 Alpha  occ. eigenvalues --   -0.50836  -0.50217  -0.49510  -0.48174  -0.46308
 Alpha  occ. eigenvalues --   -0.45431  -0.44720  -0.43962  -0.40320  -0.38869
 Alpha  occ. eigenvalues --   -0.35890  -0.31784  -0.31356  -0.31019  -0.29950
 Alpha  occ. eigenvalues --   -0.20555
 Alpha virt. eigenvalues --    0.00194   0.09389   0.09514   0.10178   0.12136
 Alpha virt. eigenvalues --    0.13464   0.17915   0.18542   0.18718   0.19506
 Alpha virt. eigenvalues --    0.19827   0.20298   0.20320   0.21523   0.22290
 Alpha virt. eigenvalues --    0.23830   0.24114   0.24701   0.25060   0.26424
 Alpha virt. eigenvalues --    0.28270   0.29388   0.31756   0.32587   0.32875
 Alpha virt. eigenvalues --    0.36547   0.38716   0.38836   0.39235   0.39342
 Alpha virt. eigenvalues --    0.41178   0.41651   0.42026   0.42590   0.42638
 Alpha virt. eigenvalues --    0.44404   0.44816   0.45228   0.46229   0.46776
 Alpha virt. eigenvalues --    0.48207   0.48479   0.49637   0.50871   0.52325
 Alpha virt. eigenvalues --    0.54261   0.54620   0.58671   0.59413   0.59893
 Alpha virt. eigenvalues --    0.62269   0.63768   0.63794   0.64908   0.64959
 Alpha virt. eigenvalues --    0.65008   0.65218   0.66714   0.66874   0.66943
 Alpha virt. eigenvalues --    0.66962   0.67039   0.67044   0.68422   0.68596
 Alpha virt. eigenvalues --    0.68895   0.69400   0.69434   0.69683   0.69951
 Alpha virt. eigenvalues --    0.70604   0.71094   0.71366   0.71834   0.71862
 Alpha virt. eigenvalues --    0.72428   0.72799   0.73767   0.73901   0.74262
 Alpha virt. eigenvalues --    0.74293   0.74752   0.74951   0.74990   0.75082
 Alpha virt. eigenvalues --    0.75220   0.75816   0.76210   0.76948   0.77443
 Alpha virt. eigenvalues --    0.78025   0.78128   0.78277   0.78535   0.79996
 Alpha virt. eigenvalues --    0.80593   0.81693   0.83296   0.84695   0.84888
 Alpha virt. eigenvalues --    0.85341   0.85670   0.86182   0.86819   0.88045
 Alpha virt. eigenvalues --    0.89366   0.90223   0.90266   0.90490   0.90607
 Alpha virt. eigenvalues --    0.90779   0.90982   0.92724   0.92732   0.92784
 Alpha virt. eigenvalues --    0.93061   0.94433   0.96194   0.96399   0.96589
 Alpha virt. eigenvalues --    0.97246   0.98487   0.99872   1.01861   1.03339
 Alpha virt. eigenvalues --    1.03911   1.05110   1.05528   1.06293   1.08586
 Alpha virt. eigenvalues --    1.08855   1.09372   1.09800   1.11970   1.12078
 Alpha virt. eigenvalues --    1.12952   1.13118   1.13188   1.13205   1.13222
 Alpha virt. eigenvalues --    1.14376   1.15521   1.15687   1.15916   1.16008
 Alpha virt. eigenvalues --    1.17155   1.17399   1.17921   1.17929   1.17964
 Alpha virt. eigenvalues --    1.18293   1.18582   1.18604   1.19853   1.20273
 Alpha virt. eigenvalues --    1.20515   1.22422   1.22731   1.22789   1.22912
 Alpha virt. eigenvalues --    1.23521   1.23868   1.23890   1.24539   1.24911
 Alpha virt. eigenvalues --    1.25515   1.27506   1.27660   1.28924   1.29425
 Alpha virt. eigenvalues --    1.29536   1.29995   1.30882   1.31883   1.32825
 Alpha virt. eigenvalues --    1.33819   1.34244   1.34307   1.34372   1.36738
 Alpha virt. eigenvalues --    1.38875   1.40914   1.44821   1.45426   1.46017
 Alpha virt. eigenvalues --    1.48392   1.49574   1.56795   1.58035   1.58148
 Alpha virt. eigenvalues --    1.59480   1.60268   1.60988   1.61090   1.61464
 Alpha virt. eigenvalues --    1.62088   1.63056   1.63313   1.63387   1.63889
 Alpha virt. eigenvalues --    1.65046   1.65198   1.65822   1.66196   1.68254
 Alpha virt. eigenvalues --    1.68362   1.69219   1.72055   1.72492   1.73708
 Alpha virt. eigenvalues --    1.73926   1.74366   1.74714   1.74751   1.74754
 Alpha virt. eigenvalues --    1.74848   1.75057   1.77178   1.79141   1.79992
 Alpha virt. eigenvalues --    1.81128   1.81487   1.81581   1.83571   1.83922
 Alpha virt. eigenvalues --    1.84717   1.85362   1.87049   1.87126   1.87365
 Alpha virt. eigenvalues --    1.88068   1.88589   1.88873   1.89375   1.90134
 Alpha virt. eigenvalues --    1.90279   1.90416   1.91142   1.92039   1.92236
 Alpha virt. eigenvalues --    1.92370   1.93385   1.94176   1.95224   1.96080
 Alpha virt. eigenvalues --    1.96181   1.96634   1.96696   1.97050   1.97130
 Alpha virt. eigenvalues --    1.97502   1.97736   1.98885   2.00492   2.01632
 Alpha virt. eigenvalues --    2.02344   2.03033   2.03347   2.04490   2.05125
 Alpha virt. eigenvalues --    2.05362   2.05465   2.05494   2.05833   2.06409
 Alpha virt. eigenvalues --    2.08238   2.08849   2.09171   2.10248   2.10517
 Alpha virt. eigenvalues --    2.11166   2.11263   2.12246   2.13281   2.13475
 Alpha virt. eigenvalues --    2.14532   2.15076   2.15619   2.15751   2.17022
 Alpha virt. eigenvalues --    2.18090   2.19252   2.19501   2.19621   2.20226
 Alpha virt. eigenvalues --    2.20820   2.21376   2.21881   2.22526   2.23464
 Alpha virt. eigenvalues --    2.23689   2.25516   2.27590   2.27696   2.28998
 Alpha virt. eigenvalues --    2.30159   2.30443   2.31372   2.34600   2.34861
 Alpha virt. eigenvalues --    2.35031   2.37969   2.38100   2.38972   2.39128
 Alpha virt. eigenvalues --    2.41697   2.42271   2.42291   2.44179   2.44679
 Alpha virt. eigenvalues --    2.45302   2.46751   2.50295   2.51138   2.52426
 Alpha virt. eigenvalues --    2.52626   2.54711   2.55440   2.55975   2.57908
 Alpha virt. eigenvalues --    2.57965   2.59182   2.60193   2.60728   2.61350
 Alpha virt. eigenvalues --    2.66161   2.67443   2.67572   2.68167   2.69999
 Alpha virt. eigenvalues --    2.72726   2.74886   2.75999   2.76082   2.77341
 Alpha virt. eigenvalues --    2.78136   2.78561   2.81534   2.84612   2.84840
 Alpha virt. eigenvalues --    2.89823   2.92184   2.92865   2.93024   2.95361
 Alpha virt. eigenvalues --    2.95875   2.99875   3.00179   3.02296   3.04638
 Alpha virt. eigenvalues --    3.05018   3.06209   3.07136   3.11938   3.14118
 Alpha virt. eigenvalues --    3.16615   3.18143   3.18363   3.18513   3.26373
 Alpha virt. eigenvalues --    3.29094   3.35732   3.40013   3.48789   3.61063
 Alpha virt. eigenvalues --    3.70770   3.75385   3.77353   3.78886   3.92948
 Alpha virt. eigenvalues --    3.95472
          Condensed to atoms (all electrons):
 Mulliken charges:
               1
     1  C    0.024364
     2  C    0.027086
     3  C   -0.086178
     4  C    0.060743
     5  C   -0.086178
     6  C    0.027086
     7  C    0.024364
     8  C   -0.030717
     9  C   -0.037164
    10  C   -0.037164
    11  C   -0.030717
    12  C    0.024364
    13  C    0.027086
    14  C   -0.086178
    15  C    0.060743
    16  C   -0.086178
    17  C    0.027086
    18  C    0.024364
    19  C   -0.030717
    20  C   -0.037164
    21  C   -0.037164
    22  C   -0.030717
    23  C   -0.033304
    24  C    0.068530
    25  C   -0.033304
    26  C    0.068530
    27  C   -0.033304
    28  C   -0.033304
    29  H    0.028398
    30  H    0.016026
    31  H    0.009126
    32  H    0.016026
    33  H    0.028398
    34  H    0.022289
    35  H    0.022289
    36  H    0.028398
    37  H    0.016026
    38  H    0.009126
    39  H    0.016026
    40  H    0.028398
    41  H    0.022289
    42  H    0.022289
 Sum of Mulliken charges =  -0.00000
 Mulliken charges with hydrogens summed into heavy atoms:
               1
     1  C    0.052762
     2  C    0.043113
     3  C   -0.086178
     4  C    0.069869
     5  C   -0.086178
     6  C    0.043113
     7  C    0.052762
     8  C   -0.008428
     9  C   -0.037164
    10  C   -0.037164
    11  C   -0.008428
    12  C    0.052762
    13  C    0.043113
    14  C   -0.086178
    15  C    0.069869
    16  C   -0.086178
    17  C    0.043113
    18  C    0.052762
    19  C   -0.008428
    20  C   -0.037164
    21  C   -0.037164
    22  C   -0.008428
    23  C   -0.033304
    24  C    0.068530
    25  C   -0.033304
    26  C    0.068530
    27  C   -0.033304
    28  C   -0.033304
 Electronic spatial extent (au):  <R**2>=           8778.0497
 Charge=              0.0000 electrons
 Dipole moment (field-independent basis, Debye):
    X=             -0.0000    Y=              0.0000    Z=             -0.0000  Tot=              0.0000
 Unable to Open any file for archive entry.
 1\1\GINC-NODE01\SP\RCCSD(T)-FC\CC-pVDZ\C28H14\XUHJ\27-Jan-2025\0\\#T C
 CSD(T)/cc-pVDZ symm=veryloose\\c1cc2cc3cccc4c5cccc6cc7cccc8c(c1)c2c(c3
 4)c(c78)c65\\0,1\C,0,0.,-3.652536,-2.895185\C,0,0.,-2.461429,-3.581866
 \C,0,0.,-1.223769,-2.874783\C,0,0.,0.,-3.556545\C,0,0.,1.223769,-2.874
 783\C,0,0.,2.461429,-3.581866\C,0,0.,3.652536,-2.895185\C,0,0.,3.66376
 9,-1.482781\C,0,0.,2.48892,-0.736028\C,0,0.,2.48892,0.736028\C,0,0.,3.
 663769,1.482781\C,0,0.,3.652536,2.895185\C,0,0.,2.461429,3.581866\C,0,
 0.,1.223769,2.874783\C,0,0.,0.,3.556545\C,0,0.,-1.223769,2.874783\C,0,
 0.,-2.461429,3.581866\C,0,0.,-3.652536,2.895185\C,0,0.,-3.663769,1.482
 781\C,0,0.,-2.48892,0.736028\C,0,0.,-2.48892,-0.736028\C,0,0.,-3.66376
 9,-1.482781\C,0,0.,-1.231068,-1.432515\C,0,0.,0.,-0.726264\C,0,0.,1.23
 1068,-1.432515\C,0,0.,0.,0.726264\C,0,0.,-1.231068,1.432515\C,0,0.,1.2
 31068,1.432515\H,0,0.,-4.602856,-3.436962\H,0,0.,-2.441978,-4.67552\H,
 0,0.,0.,-4.650643\H,0,0.,2.441978,-4.67552\H,0,0.,4.602856,-3.436962\H
 ,0,0.,4.631586,-0.979983\H,0,0.,4.631586,0.979983\H,0,0.,4.602856,3.43
 6962\H,0,0.,2.441978,4.67552\H,0,0.,0.,4.650643\H,0,0.,-2.441978,4.675
 52\H,0,0.,-4.602856,3.436962\H,0,0.,-4.631586,0.979983\H,0,0.,-4.63158
 6,-0.979983\\Version=ES64L-G16RevC.01\State=1-AG\HF=-1068.617465\MP2=-
 1072.2303911\MP3=-1072.2725184\MP4D=-1072.3788932\MP4DQ=-1072.2528686\
 MP4SDQ=-1072.2849049\CCSD=-1072.2880614\CCSD(T)=-1072.4852162\RMSD=6.9
 41e-09\PG=D02H [C2"(H1C1C1.C1C1H1),SG(C24H12)]\\@
 The archive entry for this job was punched.


 NEVER TEACH A PIG TO SING.
 IT WASTES YOUR TIME AND ANNOYS THE PIG.
     -- SEEN ON A GREETING CARD
 Job cpu time:       2 days  4 hours 35 minutes 29.1 seconds.
 Elapsed time:       0 days  3 hours 17 minutes 13.5 seconds.
 File lengths (MBytes):  RWF=  38372 Int=      0 D2E=      0 Chk=     15 Scr=      1
 Normal termination of Gaussian 16 at Mon Jan 27 06:43:53 2025.
 Initial command:
 /opt/g16/l1.exe "/tmp/Gau-2841790.inp" -scrdir="/tmp/"
 Entering Link 1 = /opt/g16/l1.exe PID=   3120178.
  
 Copyright (c) 1988-2019, Gaussian, Inc.  All Rights Reserved.
  
 This is part of the Gaussian(R) 16 program.  It is based on
 the Gaussian(R) 09 system (copyright 2009, Gaussian, Inc.),
 the Gaussian(R) 03 system (copyright 2003, Gaussian, Inc.),
 the Gaussian(R) 98 system (copyright 1998, Gaussian, Inc.),
 the Gaussian(R) 94 system (copyright 1995, Gaussian, Inc.),
 the Gaussian 92(TM) system (copyright 1992, Gaussian, Inc.),
 the Gaussian 90(TM) system (copyright 1990, Gaussian, Inc.),
 the Gaussian 88(TM) system (copyright 1988, Gaussian, Inc.),
 the Gaussian 86(TM) system (copyright 1986, Carnegie Mellon
 University), and the Gaussian 82(TM) system (copyright 1983,
 Carnegie Mellon University). Gaussian is a federally registered
 trademark of Gaussian, Inc.
  
 This software contains proprietary and confidential information,
 including trade secrets, belonging to Gaussian, Inc.
  
 This software is provided under written license and may be
 used, copied, transmitted, or stored only in accord with that
 written license.
  
 The following legend is applicable only to US Government
 contracts under FAR:
  
                    RESTRICTED RIGHTS LEGEND
  
 Use, reproduction and disclosure by the US Government is
 subject to restrictions as set forth in subparagraphs (a)
 and (c) of the Commercial Computer Software - Restricted
 Rights clause in FAR 52.227-19.
  
 Gaussian, Inc.
 340 Quinnipiac St., Bldg. 40, Wallingford CT 06492
  
  
 ---------------------------------------------------------------
 Warning -- This program may not be used in any manner that
 competes with the business of Gaussian, Inc. or will provide
 assistance to any competitor of Gaussian, Inc.  The licensee
 of this program is prohibited from giving any competitor of
 Gaussian, Inc. access to this program.  By using this program,
 the user acknowledges that Gaussian, Inc. is engaged in the
 business of creating and licensing software in the field of
 computational chemistry and represents and warrants to the
 licensee that it is not a competitor of Gaussian, Inc. and that
 it will not use this program in any manner prohibited above.
 ---------------------------------------------------------------
  

 Cite this work as:
 Gaussian 16, Revision C.01,
 M. J. Frisch, G. W. Trucks, H. B. Schlegel, G. E. Scuseria, 
 M. A. Robb, J. R. Cheeseman, G. Scalmani, V. Barone, 
 G. A. Petersson, H. Nakatsuji, X. Li, M. Caricato, A. V. Marenich, 
 J. Bloino, B. G. Janesko, R. Gomperts, B. Mennucci, H. P. Hratchian, 
 J. V. Ortiz, A. F. Izmaylov, J. L. Sonnenberg, D. Williams-Young, 
 F. Ding, F. Lipparini, F. Egidi, J. Goings, B. Peng, A. Petrone, 
 T. Henderson, D. Ranasinghe, V. G. Zakrzewski, J. Gao, N. Rega, 
 G. Zheng, W. Liang, M. Hada, M. Ehara, K. Toyota, R. Fukuda, 
 J. Hasegawa, M. Ishida, T. Nakajima, Y. Honda, O. Kitao, H. Nakai, 
 T. Vreven, K. Throssell, J. A. Montgomery, Jr., J. E. Peralta, 
 F. Ogliaro, M. J. Bearpark, J. J. Heyd, E. N. Brothers, K. N. Kudin, 
 V. N. Staroverov, T. A. Keith, R. Kobayashi, J. Normand, 
 K. Raghavachari, A. P. Rendell, J. C. Burant, S. S. Iyengar, 
 J. Tomasi, M. Cossi, J. M. Millam, M. Klene, C. Adamo, R. Cammi, 
 J. W. Ochterski, R. L. Martin, K. Morokuma, O. Farkas, 
 J. B. Foresman, and D. J. Fox, Gaussian, Inc., Wallingford CT, 2019.
 
 ******************************************
 Gaussian 16:  ES64L-G16RevC.01  3-Jul-2019
                27-Jan-2025 
 ******************************************
 %nprocshared=16
 Will use up to   16 processors via shared memory.
 %mem=89600MB
 %chk=RYQHWGXLBQHJST-UHFFFAOYSA-N-1.chk
 -----------------------------------------------
 #T CCSD(T)/cc-pVTZ symm=veryloose geom=allcheck
 -----------------------------------------------
 Structure from the checkpoint file:  "RYQHWGXLBQHJST-UHFFFAOYSA-N-1.chk"
 --------------------------------------------------
 c1cc2cc3cccc4c5cccc6cc7cccc8c(c1)c2c(c34)c(c78)c65
 --------------------------------------------------
 Charge =  0 Multiplicity = 1
 Z-Matrix found in chk file.
 C,0,0.,-3.652536,-2.895185
 C,0,0.,-2.461429,-3.581866
 C,0,0.,-1.223769,-2.874783
 C,0,0.,0.,-3.556545
 C,0,0.,1.223769,-2.874783
 C,0,0.,2.461429,-3.581866
 C,0,0.,3.652536,-2.895185
 C,0,0.,3.663769,-1.482781
 C,0,0.,2.48892,-0.736028
 C,0,0.,2.48892,0.736028
 C,0,0.,3.663769,1.482781
 C,0,0.,3.652536,2.895185
 C,0,0.,2.461429,3.581866
 C,0,0.,1.223769,2.874783
 C,0,0.,0.,3.556545
 C,0,0.,-1.223769,2.874783
 C,0,0.,-2.461429,3.581866
 C,0,0.,-3.652536,2.895185
 C,0,0.,-3.663769,1.482781
 C,0,0.,-2.48892,0.736028
 C,0,0.,-2.48892,-0.736028
 C,0,0.,-3.663769,-1.482781
 C,0,0.,-1.231068,-1.432515
 C,0,0.,0.,-0.726264
 C,0,0.,1.231068,-1.432515
 C,0,0.,0.,0.726264
 C,0,0.,-1.231068,1.432515
 C,0,0.,1.231068,1.432515
 H,0,0.,-4.602856,-3.436962
 H,0,0.,-2.441978,-4.67552
 H,0,0.,0.,-4.650643
 H,0,0.,2.441978,-4.67552
 H,0,0.,4.602856,-3.436962
 H,0,0.,4.631586,-0.979983
 H,0,0.,4.631586,0.979983
 H,0,0.,4.602856,3.436962
 H,0,0.,2.441978,4.67552
 H,0,0.,0.,4.650643
 H,0,0.,-2.441978,4.67552
 H,0,0.,-4.602856,3.436962
 H,0,0.,-4.631586,0.979983
 H,0,0.,-4.631586,-0.979983
 Recover connectivity data from disk.
                    Distance matrix (angstroms):
                    1          2          3          4          5
     1  C    0.000000
     2  C    1.374870   0.000000
     3  C    2.428853   1.425401   0.000000
     4  C    3.711929   2.461559   1.400860   0.000000
     5  C    4.876348   3.752419   2.447538   1.400860   0.000000
     6  C    6.152406   4.922858   3.752419   2.461559   1.425401
     7  C    7.305072   6.152406   4.876348   3.711929   2.428853
     8  C    7.451389   6.474891   5.081899   4.209953   2.809140
     9  C    6.509949   5.710057   4.284662   3.761654   2.484931
    10  C    7.134647   6.568878   5.178998   4.961946   3.826038
    11  C    8.526131   7.947874   6.548007   6.230410   4.994193
    12  C    9.321613   8.906894   7.554527   7.413895   6.260307
    13  C    8.906894   8.692157   7.434312   7.550864   6.574201
    14  C    7.554527   7.434312   6.248836   6.546724   5.749566
    15  C    7.413895   7.550864   6.546724   7.113090   6.546724
    16  C    6.260307   6.574201   5.749566   6.546724   6.248836
    17  C    6.585661   7.163732   6.574201   7.550864   7.434312
    18  C    5.790370   6.585661   6.260307   7.413895   7.554527
    19  C    4.377980   5.205408   4.994193   6.230410   6.548007
    20  C    3.813097   4.317982   3.826038   4.961946   5.178998
    21  C    2.452746   2.845971   2.484931   3.761654   4.284662
    22  C    1.412449   2.419045   2.809140   4.209953   5.081899
    23  C    2.828942   2.476590   1.442286   2.455001   2.847167
    24  C    4.247969   3.770026   2.472599   2.830281   2.472599
    25  C    5.097940   4.272499   2.847167   2.455001   1.442286
    26  C    5.143531   4.961715   3.803308   4.282809   3.803308
    27  C    4.959082   5.163120   4.307304   5.138701   4.957725
    28  C    6.525226   6.227243   4.957725   5.138701   4.307304
    29  H    1.093906   2.146324   3.425533   4.604409   5.853683
    30  H    2.152915   1.093827   2.174095   2.686143   4.084159
    31  H    4.052487   2.683452   2.156685   1.094098   2.156685
    32  H    6.349228   5.023891   4.084159   2.686143   2.174095
    33  H    8.273151   7.065771   5.853683   4.604409   3.425533
    34  H    8.502628   7.555174   6.154303   5.300025   3.899164
    35  H    9.145688   8.433346   7.010307   6.483184   5.145137
    36  H   10.404210   9.958317   8.589976   8.372301   7.159354
    37  H    9.718985   9.603532   8.393139   8.586626   7.647948
    38  H    8.383349   8.592604   7.624280   8.207188   7.624280
    39  H    7.666878   8.257409   7.647948   8.586626   8.393139
    40  H    6.403061   7.338232   7.159354   8.372301   8.589976
    41  H    3.996932   5.051737   5.145137   6.483184   7.010307
    42  H    2.150939   3.388123   3.899164   5.300025   6.154303
                    6          7          8          9         10
     6  C    0.000000
     7  C    1.374870   0.000000
     8  C    2.419045   1.412449   0.000000
     9  C    2.845971   2.452746   1.392088   0.000000
    10  C    4.317982   3.813097   2.510654   1.472056   0.000000
    11  C    5.205408   4.377980   2.965562   2.510654   1.392088
    12  C    6.585661   5.790370   4.377980   3.813097   2.452746
    13  C    7.163732   6.585661   5.205408   4.317982   2.845971
    14  C    6.574201   6.260307   4.994193   3.826038   2.484931
    15  C    7.550864   7.413895   6.230410   4.961946   3.761654
    16  C    7.434312   7.554527   6.548007   5.178998   4.284662
    17  C    8.692157   8.906894   7.947874   6.568878   5.710057
    18  C    8.906894   9.321613   8.526131   7.134647   6.509949
    19  C    7.947874   8.526131   7.904895   6.540542   6.197840
    20  C    6.568878   7.134647   6.540542   5.190938   4.977840
    21  C    5.710057   6.509949   6.197840   4.977840   5.190938
    22  C    6.474891   7.451389   7.327538   6.197840   6.540542
    23  C    4.272499   5.097940   4.895095   3.784627   4.305913
    24  C    3.770026   4.247969   3.741059   2.488939   2.886697
    25  C    2.476590   2.828942   2.433220   1.437806   2.506944
    26  C    4.961715   5.143531   4.278210   2.886697   2.488939
    27  C    6.227243   6.525226   5.697226   4.305913   3.784627
    28  C    5.163120   4.959082   3.796970   2.506944   1.437806
    29  H    7.065771   8.273151   8.494464   7.588698   8.228434
    30  H    5.023891   6.349228   6.890118   6.311367   7.321107
    31  H    2.683452   4.052487   4.843403   4.638850   5.933881
    32  H    1.093827   2.152915   3.418531   3.939772   5.411752
    33  H    2.146324   1.093906   2.168112   3.429835   4.677881
    34  H    3.388123   2.150939   1.090631   2.156509   2.745125
    35  H    5.051737   3.996932   2.646106   2.745125   2.156509
    36  H    7.338232   6.403061   5.008568   4.677881   3.429835
    37  H    8.257409   7.666878   6.278331   5.411752   3.939772
    38  H    8.592604   8.383349   7.144375   5.933881   4.638850
    39  H    9.603532   9.718985   8.672071   7.321107   6.311367
    40  H    9.958317  10.404210   9.619821   8.228434   7.588698
    41  H    8.433346   9.145688   8.653214   7.324363   7.124684
    42  H    7.555174   8.502628   8.310579   7.124684   7.324363
                   11         12         13         14         15
    11  C    0.000000
    12  C    1.412449   0.000000
    13  C    2.419045   1.374870   0.000000
    14  C    2.809140   2.428853   1.425401   0.000000
    15  C    4.209953   3.711929   2.461559   1.400860   0.000000
    16  C    5.081899   4.876348   3.752419   2.447538   1.400860
    17  C    6.474891   6.152406   4.922858   3.752419   2.461559
    18  C    7.451389   7.305072   6.152406   4.876348   3.711929
    19  C    7.327538   7.451389   6.474891   5.081899   4.209953
    20  C    6.197840   6.509949   5.710057   4.284662   3.761654
    21  C    6.540542   7.134647   6.568878   5.178998   4.961946
    22  C    7.904895   8.526131   7.947874   6.548007   6.230410
    23  C    5.697226   6.525226   6.227243   4.957725   5.138701
    24  C    4.278210   5.143531   4.961715   3.803308   4.282809
    25  C    3.796970   4.959082   5.163120   4.307304   5.138701
    26  C    3.741059   4.247969   3.770026   2.472599   2.830281
    27  C    4.895095   5.097940   4.272499   2.847167   2.455001
    28  C    2.433220   2.828942   2.476590   1.442286   2.455001
    29  H    9.619821  10.404210   9.958317   8.589976   8.372301
    30  H    8.672071   9.718985   9.603532   8.393139   8.586626
    31  H    7.144375   8.383349   8.592604   7.624280   8.207188
    32  H    6.278331   7.666878   8.257409   7.647948   8.586626
    33  H    5.008568   6.403061   7.338232   7.159354   8.372301
    34  H    2.646106   3.996932   5.051737   5.145137   6.483184
    35  H    1.090631   2.150939   3.388123   3.899164   5.300025
    36  H    2.168112   1.093906   2.146324   3.425533   4.604409
    37  H    3.418531   2.152915   1.093827   2.174095   2.686143
    38  H    4.843403   4.052487   2.683452   2.156685   1.094098
    39  H    6.890118   6.349228   5.023891   4.084159   2.686143
    40  H    8.494464   8.273151   7.065771   5.853683   4.604409
    41  H    8.310579   8.502628   7.555174   6.154303   5.300025
    42  H    8.653214   9.145688   8.433346   7.010307   6.483184
                   16         17         18         19         20
    16  C    0.000000
    17  C    1.425401   0.000000
    18  C    2.428853   1.374870   0.000000
    19  C    2.809140   2.419045   1.412449   0.000000
    20  C    2.484931   2.845971   2.452746   1.392088   0.000000
    21  C    3.826038   4.317982   3.813097   2.510654   1.472056
    22  C    4.994193   5.205408   4.377980   2.965562   2.510654
    23  C    4.307304   5.163120   4.959082   3.796970   2.506944
    24  C    3.803308   4.961715   5.143531   4.278210   2.886697
    25  C    4.957725   6.227243   6.525226   5.697226   4.305913
    26  C    2.472599   3.770026   4.247969   3.741059   2.488939
    27  C    1.442286   2.476590   2.828942   2.433220   1.437806
    28  C    2.847167   4.272499   5.097940   4.895095   3.784627
    29  H    7.159354   7.338232   6.403061   5.008568   4.677881
    30  H    7.647948   8.257409   7.666878   6.278331   5.411752
    31  H    7.624280   8.592604   8.383349   7.144375   5.933881
    32  H    8.393139   9.603532   9.718985   8.672071   7.321107
    33  H    8.589976   9.958317  10.404210   9.619821   8.228434
    34  H    7.010307   8.433346   9.145688   8.653214   7.324363
    35  H    6.154303   7.555174   8.502628   8.310579   7.124684
    36  H    5.853683   7.065771   8.273151   8.494464   7.588698
    37  H    4.084159   5.023891   6.349228   6.890118   6.311367
    38  H    2.156685   2.683452   4.052487   4.843403   4.638850
    39  H    2.174095   1.093827   2.152915   3.418531   3.939772
    40  H    3.425533   2.146324   1.093906   2.168112   3.429835
    41  H    3.899164   3.388123   2.150939   1.090631   2.156509
    42  H    5.145137   5.051737   3.996932   2.646106   2.745125
                   21         22         23         24         25
    21  C    0.000000
    22  C    1.392088   0.000000
    23  C    1.437806   2.433220   0.000000
    24  C    2.488939   3.741059   1.419267   0.000000
    25  C    3.784627   4.895095   2.462136   1.419267   0.000000
    26  C    2.886697   4.278210   2.485127   1.452528   2.485127
    27  C    2.506944   3.796970   2.865030   2.485127   3.777633
    28  C    4.305913   5.697226   3.777633   2.485127   2.865030
    29  H    3.429835   2.168112   3.922596   5.341738   6.168669
    30  H    3.939772   3.418531   3.461703   4.643262   4.899831
    31  H    4.638850   4.843403   3.445559   3.924379   3.445559
    32  H    6.311367   6.890118   4.899831   4.643262   3.461703
    33  H    7.588698   8.494464   6.168669   5.341738   3.922596
    34  H    7.124684   8.310579   5.880093   4.638530   3.430497
    35  H    7.324363   8.653214   6.339626   4.935876   4.169373
    36  H    8.228434   9.619821   7.599110   6.206346   5.922901
    37  H    7.321107   8.672071   7.127367   5.928113   6.226909
    38  H    5.933881   7.144375   6.206476   5.376907   6.206476
    39  H    5.411752   6.278331   6.226909   5.928113   7.127367
    40  H    4.677881   5.008568   5.922901   6.206346   7.599110
    41  H    2.745125   2.646106   4.169373   4.935876   6.339626
    42  H    2.156509   1.090631   3.430497   4.638530   5.880093
                   26         27         28         29         30
    26  C    0.000000
    27  C    1.419267   0.000000
    28  C    1.419267   2.462136   0.000000
    29  H    6.206346   5.922901   7.599110   0.000000
    30  H    5.928113   6.226909   7.127367   2.490667   0.000000
    31  H    5.376907   6.206476   6.206476   4.760179   2.442105
    32  H    5.928113   7.127367   6.226909   7.152881   4.883956
    33  H    6.206346   7.599110   5.922901   9.205712   7.152881
    34  H    4.935876   6.339626   4.169373   9.555714   7.980746
    35  H    4.638530   5.880093   3.430497  10.236421   9.056491
    36  H    5.341738   6.168669   3.922596  11.488950  10.744396
    37  H    4.643262   4.899831   3.461703  10.744396  10.549643
    38  H    3.924379   3.445559   3.445559   9.305678   9.640569
    39  H    4.643262   3.461703   4.899831   8.395341   9.351040
    40  H    5.341738   3.922596   6.168669   6.873924   8.395341
    41  H    4.638530   3.430497   5.880093   4.417038   6.064577
    42  H    4.935876   4.169373   6.339626   2.457147   4.295507
                   31         32         33         34         35
    31  H    0.000000
    32  H    2.442105   0.000000
    33  H    4.760179   2.490667   0.000000
    34  H    5.909766   4.295507   2.457147   0.000000
    35  H    7.290784   6.064577   4.417038   1.959966   0.000000
    36  H    9.305678   8.395341   6.873924   4.417038   2.457147
    37  H    9.640569   9.351040   8.395341   6.064577   4.295507
    38  H    9.301286   9.640569   9.305678   7.290784   5.909766
    39  H    9.640569  10.549643  10.744396   9.056491   7.980746
    40  H    9.305678  10.744396  11.488950  10.236421   9.555714
    41  H    7.290784   9.056491  10.236421   9.468253   9.263172
    42  H    5.909766   7.980746   9.555714   9.263172   9.468253
                   36         37         38         39         40
    36  H    0.000000
    37  H    2.490667   0.000000
    38  H    4.760179   2.442105   0.000000
    39  H    7.152881   4.883956   2.442105   0.000000
    40  H    9.205712   7.152881   4.760179   2.490667   0.000000
    41  H    9.555714   7.980746   5.909766   4.295507   2.457147
    42  H   10.236421   9.056491   7.290784   6.064577   4.417038
                   41         42
    41  H    0.000000
    42  H    1.959966   0.000000
 Framework group  D2H[C2"(HCC.CCH),SG(C24H12)]
 Deg. of freedom    21
                         Standard orientation:                         
 ---------------------------------------------------------------------
 Center     Atomic      Atomic             Coordinates (Angstroms)
 Number     Number       Type             X           Y           Z
 ---------------------------------------------------------------------
      1          6           0        0.000000    3.652536    2.895185
      2          6           0        0.000000    2.461429    3.581866
      3          6           0        0.000000    1.223769    2.874783
      4          6           0        0.000000    0.000000    3.556545
      5          6           0       -0.000000   -1.223769    2.874783
      6          6           0       -0.000000   -2.461429    3.581866
      7          6           0       -0.000000   -3.652536    2.895185
      8          6           0        0.000000   -3.663769    1.482781
      9          6           0        0.000000   -2.488920    0.736028
     10          6           0        0.000000   -2.488920   -0.736028
     11          6           0        0.000000   -3.663769   -1.482781
     12          6           0       -0.000000   -3.652536   -2.895185
     13          6           0       -0.000000   -2.461429   -3.581866
     14          6           0       -0.000000   -1.223769   -2.874783
     15          6           0        0.000000    0.000000   -3.556545
     16          6           0        0.000000    1.223769   -2.874783
     17          6           0        0.000000    2.461429   -3.581866
     18          6           0        0.000000    3.652536   -2.895185
     19          6           0        0.000000    3.663769   -1.482781
     20          6           0        0.000000    2.488920   -0.736028
     21          6           0        0.000000    2.488920    0.736028
     22          6           0        0.000000    3.663769    1.482781
     23          6           0        0.000000    1.231068    1.432515
     24          6           0        0.000000    0.000000    0.726264
     25          6           0       -0.000000   -1.231068    1.432515
     26          6           0        0.000000    0.000000   -0.726264
     27          6           0        0.000000    1.231068   -1.432515
     28          6           0       -0.000000   -1.231068   -1.432515
     29          1           0        0.000000    4.602856    3.436962
     30          1           0        0.000000    2.441978    4.675520
     31          1           0        0.000000    0.000000    4.650643
     32          1           0       -0.000000   -2.441978    4.675520
     33          1           0       -0.000000   -4.602856    3.436962
     34          1           0        0.000000   -4.631586    0.979983
     35          1           0        0.000000   -4.631586   -0.979983
     36          1           0       -0.000000   -4.602856   -3.436962
     37          1           0       -0.000000   -2.441978   -4.675520
     38          1           0        0.000000    0.000000   -4.650643
     39          1           0        0.000000    2.441978   -4.675520
     40          1           0        0.000000    4.602856   -3.436962
     41          1           0        0.000000    4.631586   -0.979983
     42          1           0        0.000000    4.631586    0.979983
 ---------------------------------------------------------------------
 Rotational constants (GHZ):           0.2356796           0.2283270           0.1159725
  1036 basis functions,  1694 primitive gaussians,  1190 cartesian basis functions
    91 alpha electrons       91 beta electrons
       nuclear repulsion energy      2315.2631198518 Hartrees.
 NAtoms=   42 NActive=   42 NUniq=   12 SFac= 4.00D+00 NAtFMM=   60 NAOKFM=F Big=F
 ExpMin= 1.03D-01 ExpMax= 8.24D+03 ExpMxC= 2.81D+02 IAcc=3 IRadAn=         5 AccDes= 0.00D+00
 Harris functional with IExCor=  205 and IRadAn=       5 diagonalized for initial guess.
 HarFok:  IExCor=  205 AccDes= 0.00D+00 IRadAn=         5 IDoV= 1 UseB2=F ITyADJ=14
 ICtDFT=  3500011 ScaDFX=  1.000000  1.000000  1.000000  1.000000
 FoFCou: FMM=F IPFlag=           0 FMFlag=      100000 FMFlg1=           0
         NFxFlg=           0 DoJE=T BraDBF=F KetDBF=T FulRan=T
         wScrn=  0.000000 ICntrl=       500 IOpCl=  0 I1Cent=   200000004 NGrid=           0
         NMat0=    1 NMatS0=      1 NMatT0=    0 NMatD0=    1 NMtDS0=    0 NMtDT0=    0
 Petite list used in FoFCou.
 Initial guess orbital symmetries:
       Occupied  (B1U) (B3G) (B2U) (AG) (B3G) (B1U) (B2U) (AG)
                 (B1U) (B3G) (AG) (B2U) (B1U) (AG) (B3G) (B2U)
                 (B1U) (AG) (AG) (B1U) (B2U) (AG) (B3G) (B1U) (B2U)
                 (B3G) (AG) (B1U) (AG) (B1U) (B2U) (B3G) (AG) (AG)
                 (B1U) (B2U) (B1U) (B2U) (AG) (B3G) (B3G) (B1U)
                 (AG) (B2U) (B1U) (AG) (B2U) (B3G) (B3G) (AG) (B2U)
                 (B1U) (AG) (B1U) (B3G) (B2U) (AG) (B1U) (B2U)
                 (B1U) (B3G) (AG) (B3G) (B2U) (B2U) (AG) (B3G)
                 (B3U) (AG) (B1U) (AG) (B2G) (B1G) (B3G) (B1U)
                 (B2U) (B1U) (B2U) (AU) (B3G) (AG) (B3U) (B3U)
                 (B2G) (B1G) (B2G) (B1G) (AU) (B3U) (AU) (B2G)
       Virtual   (B3U) (B1G) (B2G) (B1G) (AU) (B3U) (AU) (B3U)
                 (B2G) (B2G) (B1G) (AG) (B2U) (B1U) (B3G) (AG)
                 (B1U) (B2U) (B3U) (AU) (B1U) (AG) (B2U) (B3G)
                 (AG) (B2U) (B1U) (B3G) (AG) (AG) (B3G) (B2G) (B2U)
                 (B1U) (B1U) (B2U) (AG) (B3G) (AG) (B1U) (B2U)
                 (B2U) (AG) (B1U) (B2U) (B1U) (B3G) (AG) (B3G)
                 (B3U) (AG) (AG) (B1G) (B2G) (B3G) (B1U) (B1U)
                 (B3U) (AU) (B3G) (B2U) (B3U) (AG) (B2U) (B1U)
                 (B3G) (B1G) (B2G) (B1U) (B2G) (B2U) (B3G) (B3G)
                 (AG) (B1G) (B1U) (AG) (B2U) (B3U) (B3G) (AU) (AU)
                 (B1U) (B2U) (AG) (B3U) (B1U) (B2U) (B3U) (B1G)
                 (AG) (B1U) (B3G) (B2U) (B2G) (B1G) (AG) (B2U)
                 (B2G) (AG) (B1U) (AG) (B3U) (B3G) (B1U) (AU) (B2U)
                 (AG) (B3G) (B1U) (B2U) (AG) (B3G) (B1G) (B2G)
                 (B3U) (B1U) (AG) (B2U) (B3G) (AU) (B1U) (B2G)
                 (B1U) (B3G) (B1G) (AU) (B3G) (B3U) (B2U) (B1U)
                 (B2U) (B1G) (AG) (B3G) (B1U) (B2G) (AG) (B3U)
                 (B3G) (AU) (AG) (B1G) (B2U) (B1U) (B2G) (AG) (B3U)
                 (B2U) (B1U) (B3G) (B3U) (B3U) (B3G) (B2G) (AU)
                 (B1U) (AG) (B2U) (B1G) (AG) (AU) (B2U) (B1U) (B2G)
                 (AG) (B1G) (B1U) (AG) (B3G) (AU) (B2U) (B2U) (B2G)
                 (B1G) (AG) (B3G) (B3G) (AG) (B1U) (B3U) (B2U)
                 (B3G) (B1U) (AU) (AG) (B1U) (B2U) (B2U) (AG) (B3U)
                 (B1U) (B2G) (B1G) (B3G) (AG) (B2G) (B3G) (B1U)
                 (AG) (AG) (B2U) (B3G) (B2U) (B1U) (AU) (B3U) (B1G)
                 (B3U) (B2U) (AG) (B1U) (B3G) (B3U) (B2U) (AU)
                 (B1U) (B2G) (B3U) (B2U) (B1G) (AG) (B3G) (B3G)
                 (AG) (B1U) (AU) (B2G) (B1G) (AU) (B2U) (B1U) (B2G)
                 (B2U) (B2U) (AG) (AG) (B1U) (B3G) (B2G) (B1G)
                 (B3G) (AG) (B2U) (B2G) (B3G) (B1U) (B3U) (AG)
                 (AG) (B3G) (B1G) (B3U) (AU) (AG) (B1U) (B2U) (B1U)
                 (B2U) (B3G) (AU) (B2U) (B1G) (B2G) (B3G) (B3U)
                 (B1U) (B3G) (B1G) (AU) (AG) (B1U) (B1U) (B2U)
                 (AG) (B3U) (B3G) (AG) (B1U) (B2G) (B3G) (B1U)
                 (B2U) (AG) (B3U) (B3G) (B2U) (B2U) (B1U) (AU)
                 (AG) (B2G) (B1G) (B1U) (B2G) (B3G) (AU) (B3G)
                 (B2U) (AG) (B1U) (B2U) (AG) (B3G) (B2U) (AG) (B3G)
                 (B3U) (B1U) (B3G) (B2U) (B2G) (B3G) (B1U) (B1U)
                 (AG) (B1G) (B2U) (B1U) (AU) (AG) (B1U) (B2U) (AG)
                 (B3G) (B1U) (AG) (B3U) (B1U) (B3G) (B3G) (B2G)
                 (B1U) (B2U) (B3G) (B2U) (AU) (AG) (B1G) (B1U)
                 (AG) (B3G) (AG) (B2U) (B3U) (B1U) (B1G) (B2G)
                 (B2U) (AG) (AU) (B3G) (AU) (B1U) (B3U) (B3U) (B2G)
                 (B2G) (B1G) (B2U) (B1U) (AG) (AG) (B1U) (B3G)
                 (B1G) (B3U) (B2U) (AU) (B3G) (B1G) (B2G) (B3G)
                 (AG) (B3U) (B2U) (B1U) (B2U) (AU) (B2G) (B1G)
                 (B3U) (B2G) (B1U) (AU) (B3G) (B3U) (AG) (B1G)
                 (B2U) (AG) (B2U) (AG) (B3G) (B2U) (B1U) (AG) (B3G)
                 (B1U) (B3G) (AG) (B1U) (B1U) (B2U) (B3G) (AU)
                 (AG) (B1G) (B1U) (B2G) (B2U) (AG) (B3G) (B2U)
                 (B1U) (B2G) (B3U) (AG) (AU) (B2U) (B1G) (AU) (B3U)
                 (B2G) (B3U) (B2U) (AG) (B1U) (B3G) (B2U) (AG)
                 (B2G) (B3G) (B1U) (AU) (B2G) (B1U) (B1G) (B3U)
                 (B3G) (B3U) (AG) (B1G) (B2U) (AG) (B3G) (B3U)
                 (B2U) (B3G) (B2G) (AG) (B1U) (AU) (B3U) (B2U)
                 (B1G) (AU) (B2G) (B1G) (B1G) (B2G) (B3U) (B3G)
                 (AG) (AU) (B3U) (B1U) (B3G) (B2G) (B1U) (B3U)
                 (B2U) (B1G) (AU) (AG) (AG) (B2U) (B3G) (AG) (B1G)
                 (AU) (B1U) (B2G) (AG) (B2U) (B1U) (B2U) (B3G)
                 (B1G) (B2G) (B1U) (B3U) (B2U) (B1G) (AU) (B3U)
                 (AG) (B1U) (B3G) (B2U) (B3U) (AG) (AU) (B2G) (B1U)
                 (B3G) (AG) (B2U) (B3G) (B2G) (B1U) (AG) (B1G)
                 (B3U) (B1G) (B2U) (AG) (B1U) (B2G) (B3U) (B3G)
                 (B2U) (AU) (B3G) (B3G) (B2U) (B1G) (AG) (B1U)
                 (B3U) (AU) (B1U) (B2G) (AG) (B3G) (B2U) (B3U)
                 (AG) (B1U) (B1G) (B2G) (AU) (B3U) (B2U) (AG) (B3G)
                 (B2U) (B1U) (B2U) (B1U) (AG) (AU) (B3G) (B1G)
                 (AG) (B1U) (B2G) (AG) (B2U) (B3U) (B2U) (AU) (B3G)
                 (B1G) (B2G) (B1U) (B3G) (B3U) (B1U) (B3G) (AG)
                 (B2G) (B1U) (B2G) (B3G) (AU) (B1U) (AG) (B3U)
                 (B1G) (B2U) (AG) (B1U) (B2U) (AU) (B3G) (B1G)
                 (AG) (B3G) (B2U) (B2G) (B1U) (B3U) (B3G) (AU)
                 (AG) (B1G) (B1U) (B2G) (B2U) (AU) (B3U) (AG) (B2U)
                 (AG) (B1G) (B3U) (B2U) (B1U) (B3G) (B3U) (B1G)
                 (B1U) (B3G) (B2G) (B1U) (AU) (B3G) (AG) (B1G)
                 (AU) (B2U) (B2G) (AU) (AG) (B1U) (B3U) (B1G) (B3G)
                 (B2G) (B3G) (B2U) (B1G) (AG) (B1U) (AG) (B2G)
                 (AU) (B1U) (B3U) (B1G) (AU) (B2G) (B3G) (AG) (B2U)
                 (B3U) (B3U) (B1U) (AG) (AU) (B2U) (B2G) (B3G)
                 (B3G) (B1U) (B2U) (B2U) (AU) (B1U) (B2G) (AG)
                 (B2U) (B1G) (B1U) (B3G) (AG) (AG) (B3U) (AU) (B2U)
                 (B1U) (AG) (B1G) (B3U) (B2G) (B3G) (AG) (AU) (B1G)
                 (B2U) (B3G) (B2G) (B1U) (B1G) (AU) (B1U) (B3G)
                 (AG) (B3U) (B1U) (B3G) (B2U) (B1U) (B2G) (B1G)
                 (B3U) (B3G) (B2G) (AG) (B1U) (AU) (B1U) (B2U)
                 (AG) (B2U) (B1U) (B3G) (AU) (B2U) (AU) (B2G) (B3G)
                 (B1G) (AG) (AG) (B3U) (B2U) (B3U) (B2U) (B1U)
                 (AG) (B3G) (B2G) (B2G) (B3G) (B1G) (B1U) (B3G)
                 (B2U) (AG) (AU) (B3U) (B3G) (B1G) (B2U) (AG) (B1U)
                 (AU) (B2U) (B3U) (B1G) (B3G) (B1U) (AG) (B2G)
                 (AG) (B2U) (B3U) (B3G) (B1G) (B3U) (B1U) (AU)
                 (B2U) (B2G) (AG) (B1G) (B1U) (AU) (B3G) (B2U)
                 (B1U) (B2G) (B2G) (AG) (B3G) (AG) (B2U) (B1G)
                 (AU) (B1U) (B3U) (B2U) (B1U) (B2G) (B3G) (B3U)
                 (B2U) (B1U) (AG) (AG) (AU) (B3G) (AG) (B2U) (B2G)
                 (B3G) (B1U) (B2U) (B3U) (AU) (B2U) (B1U) (B3G)
                 (B1G) (B2G) (AG) (B3G) (B1U) (AG) (B3G) (B3U)
                 (B1U) (B1G) (B2G) (AU) (AG) (B2U) (AG) (B1U) (B3U)
                 (B3G) (B2U) (B1G) (B1U) (AU) (B1G) (AG) (B2G)
                 (AU) (B3U) (B3G) (B2U) (B2G) (AG) (B2U) (B3G)
                 (B1U) (B3G) (AG) (B3U) (B1G) (B2G) (B1U) (B3G)
                 (B2U) (B1U) (B2G) (AU) (B2U) (AU) (AG) (B2U) (B1U)
                 (B3G) (AG) (B3G) (B1U) (B3U) (B2U) (B3G) (AG)
                 (B1U) (B2G) (AG) (B2U) (B3G) (AG) (B2U) (B3U)
                 (B3G) (B1U) (B3G) (B1G) (B1U) (B2G) (B2U) (AG)
                 (AU) (B1U) (AG) (B2U) (B1U) (B3G) (B1U) (AG) (AG)
                 (B1U) (B3G) (B2U) (B1U) (AG) (B1U) (B3G) (B3G)
                 (B2U) (B1U) (B2U) (B3G) (AG) (B2U) (B3G) (AG)
                 (B3G) (B1U) (B2U) (AG) (B2U) (B1U) (B3G) (AG)
                 (B1U) (B3G) (B1U) (B2U) (B1U) (B3G) (AG) (B2U)
                 (B3G) (B1U) (B3G) (AG) (B2U) (B1U) (B3G) (AG)
                 (B1U) (B2U) (B3G) (AG) (B1U) (AG) (B2U) (B3G)
                 (AG) (B1U) (B2U) (B2U) (B2U) (B3G) (AG) (B3G)
                 (B1U) (AG) (B1U) (AG) (B2U) (B1U) (B3G) (B1U)
                 (B1U) (AG) (B3G)
 The electronic state of the initial guess is 1-AG.
 Integral accuracy reduced to 1.0D-05 until final iterations.
 Problem detected with inexpensive integrals.
 Switching to full accuracy and repeating last cycle.
 SCF Done:  E(RHF) =  -1068.85384187     A.U. after   16 cycles
            NFock= 16  Conv=0.52D-08     -V/T= 2.0019
 ExpMin= 1.03D-01 ExpMax= 8.24D+03 ExpMxC= 2.81D+02 IAcc=3 IRadAn=         5 AccDes= 0.00D+00
 HarFok:  IExCor=  205 AccDes= 0.00D+00 IRadAn=         5 IDoV=-2 UseB2=F ITyADJ=14
 ICtDFT= 12500011 ScaDFX=  1.000000  1.000000  1.000000  1.000000
 GSVD:  LWork=       -1008 too small for GESVD, short by        4340 words or        4340 for optimal perf.
 NROrb=   1008 NOA=    63 NOB=    63 NVA=   945 NVB=   945

 **** Warning!!: The largest alpha MO coefficient is  0.75306988D+02

 Semi-Direct transformation.
 ModeAB=           4 MOrb=            63 LenV=   11720929343
 LASXX=   3963062836 LTotXX=  3963062836 LenRXX=  7939470079
 LTotAB=  3976407243 MaxLAS=  7505537760 LenRXY=           0
 NonZer= 11902532915 LenScr= 23898419200 LnRSAI=  7505537760
 LnScr1= 15069942784 LExtra=           0 Total=  54413369823
 MaxDsk=          -1 SrtSym=           T ITran=            4
 JobTyp=0 Pass  1:  I=   1 to  63.
 (rs|ai) integrals will be sorted in core.
 ANorm=    0.1604583870D+01
 E2 =    -0.4357604648D+01 EUMP2 =    -0.10732114465177D+04
 CIDS: In Core Option IDoMem=           1.
 Produce multiple copies of IABC intergrals
 FoFJK:  IHMeth= 1 ICntrl=     200 DoSepK=F KAlg= 0 I1Cent=           0 FoldK=F
 IRaf= 750000000 NMat=     270 IRICut=     337 DoRegI=T DoRafI=T ISym2E=-1 IDoP0=3 IntGTp=3.
 FoFCou: FMM=F IPFlag=           0 FMFlag=      100000 FMFlg1=           0
         NFxFlg=           0 DoJE=F BraDBF=F KetDBF=F FulRan=T
         wScrn=  0.000000 ICntrl=       200 IOpCl=  0 I1Cent=           0 NGrid=           0
         NMat0=  270 NMatS0=      0 NMatT0=  135 NMatD0=  270 NMtDS0=    0 NMtDT0=    0
 Petite list used in FoFCou.
 Raff kept on since  74.22% of shell-pairs survive, threshold=   0.20 IRatSp=74.
 MP4(R+Q)=  0.17316384D+00
 E3=        0.91555022D-03        EUMP3=      -0.10732105310D+04
 E4(DQ)=    0.53973749D-01        UMP4(DQ)=   -0.10731565572D+04
 E4(SDQ)=   0.13687821D-01        UMP4(SDQ)=  -0.10731968431D+04
 DE(Corr)=  -4.1827887     E(Corr)=     -1073.0366306    
 NORM(A)=   0.15511274D+01
 DE(Corr)=  -4.3471273     E(CORR)=     -1073.2009692     Delta=-1.64D-01
 NORM(A)=   0.15973882D+01
 DE(Corr)=  -4.3314029     E(CORR)=     -1073.1852448     Delta= 1.57D-02
 NORM(A)=   0.16027606D+01
 DE(Corr)=  -4.3428430     E(CORR)=     -1073.1966849     Delta=-1.14D-02
 NORM(A)=   0.16051972D+01
 DE(Corr)=  -4.3443941     E(CORR)=     -1073.1982359     Delta=-1.55D-03
 NORM(A)=   0.16065846D+01
 DE(Corr)=  -4.3446245     E(CORR)=     -1073.1984663     Delta=-2.30D-04
 NORM(A)=   0.16070542D+01
 DE(Corr)=  -4.3446347     E(CORR)=     -1073.1984765     Delta=-1.02D-05
 NORM(A)=   0.16070235D+01
 DE(Corr)=  -4.3447537     E(CORR)=     -1073.1985956     Delta=-1.19D-04
 NORM(A)=   0.16071170D+01
 DE(Corr)=  -4.3446686     E(CORR)=     -1073.1985105     Delta= 8.51D-05
 NORM(A)=   0.16071068D+01
 DE(Corr)=  -4.3447029     E(CORR)=     -1073.1985447     Delta=-3.43D-05
 NORM(A)=   0.16071116D+01
[...]
 Alpha  occ. eigenvalues --   -1.17005  -1.13713  -1.10883  -1.10221  -1.07528
 Alpha  occ. eigenvalues --   -1.06296  -1.02742  -1.01760  -1.00241  -1.00239
 Alpha  occ. eigenvalues --   -0.98784  -0.92867  -0.90250  -0.87034  -0.85941
 Alpha  occ. eigenvalues --   -0.85420  -0.84492  -0.82052  -0.77393  -0.77301
 Alpha  occ. eigenvalues --   -0.75094  -0.72693  -0.71922  -0.71212  -0.67848
 Alpha  occ. eigenvalues --   -0.67139  -0.65588  -0.64414  -0.64214  -0.62884
 Alpha  occ. eigenvalues --   -0.62846  -0.61570  -0.59451  -0.59285  -0.58873
 Alpha  occ. eigenvalues --   -0.58100  -0.57742  -0.56174  -0.55967  -0.55150
 Alpha  occ. eigenvalues --   -0.54652  -0.53220  -0.52696  -0.52397  -0.52007
 Alpha  occ. eigenvalues --   -0.50811  -0.50225  -0.49507  -0.48228  -0.46309
 Alpha  occ. eigenvalues --   -0.45415  -0.44769  -0.44022  -0.40374  -0.38916
 Alpha  occ. eigenvalues --   -0.35941  -0.31851  -0.31401  -0.31066  -0.30003
 Alpha  occ. eigenvalues --   -0.20622
 Alpha virt. eigenvalues --   -0.00027   0.08915   0.09002   0.09786   0.11801
 Alpha virt. eigenvalues --    0.12657   0.13956   0.14529   0.14542   0.15526
 Alpha virt. eigenvalues --    0.15712   0.16941   0.17591   0.18772   0.19273
 Alpha virt. eigenvalues --    0.19281   0.19330   0.20519   0.22745   0.23317
 Alpha virt. eigenvalues --    0.25159   0.25804   0.26376   0.28064   0.30288
 Alpha virt. eigenvalues --    0.32070   0.33969   0.34462   0.35267   0.35896
 Alpha virt. eigenvalues --    0.36199   0.36907   0.37891   0.37916   0.37946
 Alpha virt. eigenvalues --    0.38023   0.38040   0.38734   0.39626   0.39756
 Alpha virt. eigenvalues --    0.40527   0.40586   0.40869   0.41322   0.41523
 Alpha virt. eigenvalues --    0.41532   0.42389   0.42473   0.42967   0.43892
 Alpha virt. eigenvalues --    0.44500   0.44781   0.45100   0.45195   0.45578
 Alpha virt. eigenvalues --    0.46591   0.46737   0.47009   0.47151   0.47251
 Alpha virt. eigenvalues --    0.47582   0.47634   0.47984   0.49455   0.49500
 Alpha virt. eigenvalues --    0.49640   0.50192   0.51315   0.52209   0.52525
 Alpha virt. eigenvalues --    0.52806   0.52964   0.53074   0.53311   0.53777
 Alpha virt. eigenvalues --    0.53974   0.54752   0.54978   0.56126   0.56826
 Alpha virt. eigenvalues --    0.56856   0.57363   0.57423   0.57711   0.57970
 Alpha virt. eigenvalues --    0.58114   0.58311   0.58344   0.58671   0.58844
 Alpha virt. eigenvalues --    0.59660   0.59846   0.60104   0.60198   0.60420
 Alpha virt. eigenvalues --    0.60880   0.60980   0.61169   0.61365   0.61540
 Alpha virt. eigenvalues --    0.63024   0.63341   0.63971   0.65004   0.65214
 Alpha virt. eigenvalues --    0.65242   0.66211   0.67075   0.67114   0.67212
 Alpha virt. eigenvalues --    0.67502   0.67738   0.67799   0.68307   0.68622
 Alpha virt. eigenvalues --    0.70428   0.70770   0.72089   0.72111   0.73403
 Alpha virt. eigenvalues --    0.73405   0.73521   0.74138   0.74537   0.74603
 Alpha virt. eigenvalues --    0.76383   0.76490   0.76812   0.77207   0.78470
 Alpha virt. eigenvalues --    0.78678   0.80813   0.80977   0.81348   0.81701
 Alpha virt. eigenvalues --    0.82733   0.83007   0.83233   0.83377   0.84683
 Alpha virt. eigenvalues --    0.85463   0.85472   0.85527   0.85607   0.86592
 Alpha virt. eigenvalues --    0.86784   0.87298   0.88616   0.88639   0.89321
 Alpha virt. eigenvalues --    0.90104   0.90517   0.90639   0.91041   0.91083
 Alpha virt. eigenvalues --    0.91847   0.92845   0.93563   0.93789   0.94427
 Alpha virt. eigenvalues --    0.94482   0.94600   0.95757   0.96778   0.97063
 Alpha virt. eigenvalues --    0.97319   0.97477   0.98952   0.99102   0.99478
 Alpha virt. eigenvalues --    1.00222   1.00480   1.01436   1.01613   1.01836
 Alpha virt. eigenvalues --    1.01918   1.02175   1.02381   1.02538   1.03150
 Alpha virt. eigenvalues --    1.03548   1.04819   1.06329   1.06401   1.06610
 Alpha virt. eigenvalues --    1.06682   1.06872   1.07219   1.07829   1.08313
 Alpha virt. eigenvalues --    1.08865   1.09106   1.09462   1.09520   1.10520
 Alpha virt. eigenvalues --    1.11473   1.11744   1.11793   1.12544   1.12586
 Alpha virt. eigenvalues --    1.13192   1.13801   1.13882   1.14589   1.15475
 Alpha virt. eigenvalues --    1.15690   1.15728   1.15894   1.16130   1.16206
 Alpha virt. eigenvalues --    1.18477   1.18846   1.18962   1.19556   1.19773
 Alpha virt. eigenvalues --    1.20109   1.21237   1.21400   1.23068   1.23365
 Alpha virt. eigenvalues --    1.23893   1.24049   1.24427   1.24656   1.25002
 Alpha virt. eigenvalues --    1.25862   1.26280   1.26447   1.27647   1.28072
 Alpha virt. eigenvalues --    1.28365   1.28582   1.29211   1.29288   1.29351
 Alpha virt. eigenvalues --    1.29863   1.29909   1.30083   1.31430   1.31430
 Alpha virt. eigenvalues --    1.33183   1.34005   1.35731   1.37162   1.37664
 Alpha virt. eigenvalues --    1.37709   1.37782   1.38734   1.40291   1.40989
 Alpha virt. eigenvalues --    1.41755   1.42332   1.43087   1.44382   1.44675
 Alpha virt. eigenvalues --    1.45215   1.45268   1.45432   1.46183   1.47812
 Alpha virt. eigenvalues --    1.48035   1.49276   1.49406   1.49623   1.50250
 Alpha virt. eigenvalues --    1.51085   1.51240   1.52223   1.52614   1.52774
 Alpha virt. eigenvalues --    1.53014   1.53965   1.54439   1.54846   1.55323
 Alpha virt. eigenvalues --    1.55327   1.55771   1.55920   1.56201   1.56308
 Alpha virt. eigenvalues --    1.57200   1.57803   1.57854   1.58659   1.58896
 Alpha virt. eigenvalues --    1.58956   1.60157   1.60262   1.60953   1.61092
 Alpha virt. eigenvalues --    1.64988   1.65953   1.66195   1.66284   1.67510
 Alpha virt. eigenvalues --    1.68040   1.68121   1.68906   1.69598   1.70366
 Alpha virt. eigenvalues --    1.70403   1.71929   1.73777   1.74942   1.75966
 Alpha virt. eigenvalues --    1.76278   1.76470   1.77235   1.77394   1.77786
 Alpha virt. eigenvalues --    1.78612   1.78732   1.81829   1.82236   1.82958
 Alpha virt. eigenvalues --    1.83235   1.83792   1.85497   1.85945   1.86130
 Alpha virt. eigenvalues --    1.87514   1.88565   1.90465   1.90473   1.91621
 Alpha virt. eigenvalues --    1.92717   1.93670   1.94186   1.97096   1.97689
 Alpha virt. eigenvalues --    1.98313   1.98564   1.99654   2.00802   2.03487
 Alpha virt. eigenvalues --    2.03644   2.03970   2.04460   2.06227   2.07137
 Alpha virt. eigenvalues --    2.07218   2.09521   2.10912   2.11410   2.13097
 Alpha virt. eigenvalues --    2.18221   2.19518   2.20050   2.21359   2.24762
 Alpha virt. eigenvalues --    2.26604   2.27242   2.27455   2.28731   2.29488
 Alpha virt. eigenvalues --    2.29513   2.32771   2.32817   2.33612   2.33765
 Alpha virt. eigenvalues --    2.34827   2.37604   2.38489   2.39988   2.40261
 Alpha virt. eigenvalues --    2.40586   2.40786   2.42460   2.42879   2.44355
 Alpha virt. eigenvalues --    2.44779   2.45284   2.46207   2.47702   2.47842
 Alpha virt. eigenvalues --    2.50299   2.50894   2.50943   2.51916   2.52299
 Alpha virt. eigenvalues --    2.52464   2.53187   2.55015   2.55105   2.57539
 Alpha virt. eigenvalues --    2.57669   2.59318   2.59411   2.60295   2.61866
 Alpha virt. eigenvalues --    2.63398   2.64305   2.64589   2.66403   2.67973
 Alpha virt. eigenvalues --    2.68334   2.69745   2.70163   2.70296   2.70779
 Alpha virt. eigenvalues --    2.71220   2.71976   2.72389   2.72807   2.74266
 Alpha virt. eigenvalues --    2.74395   2.75133   2.75465   2.75500   2.75935
 Alpha virt. eigenvalues --    2.76787   2.77879   2.77998   2.79011   2.79554
 Alpha virt. eigenvalues --    2.79868   2.80175   2.80253   2.80357   2.81836
 Alpha virt. eigenvalues --    2.82197   2.82207   2.82375   2.82572   2.83206
 Alpha virt. eigenvalues --    2.83428   2.83589   2.83733   2.84842   2.85069
 Alpha virt. eigenvalues --    2.85660   2.85947   2.86847   2.86931   2.87368
 Alpha virt. eigenvalues --    2.88028   2.88813   2.89207   2.89556   2.90054
 Alpha virt. eigenvalues --    2.90604   2.90950   2.91879   2.94377   2.94940
 Alpha virt. eigenvalues --    2.95661   2.95849   2.96627   2.96982   2.97993
 Alpha virt. eigenvalues --    2.98186   2.98399   2.98512   2.98823   3.00386
 Alpha virt. eigenvalues --    3.00989   3.01194   3.01292   3.01317   3.02201
 Alpha virt. eigenvalues --    3.02466   3.02901   3.03415   3.04130   3.04988
 Alpha virt. eigenvalues --    3.05695   3.05771   3.06449   3.06496   3.06537
 Alpha virt. eigenvalues --    3.07555   3.09046   3.09056   3.09228   3.10192
 Alpha virt. eigenvalues --    3.12785   3.13379   3.14671   3.14743   3.14891
 Alpha virt. eigenvalues --    3.15079   3.15229   3.15679   3.15988   3.16922
 Alpha virt. eigenvalues --    3.17165   3.17859   3.17986   3.18432   3.18475
 Alpha virt. eigenvalues --    3.18740   3.20044   3.22110   3.22148   3.22773
 Alpha virt. eigenvalues --    3.22955   3.24010   3.24435   3.24770   3.25049
 Alpha virt. eigenvalues --    3.25729   3.25940   3.26055   3.27172   3.28004
 Alpha virt. eigenvalues --    3.28239   3.28534   3.28717   3.29255   3.29416
 Alpha virt. eigenvalues --    3.29658   3.30174   3.30456   3.31752   3.31783
 Alpha virt. eigenvalues --    3.31976   3.32043   3.32489   3.32596   3.32949
 Alpha virt. eigenvalues --    3.32957   3.33037   3.33204   3.33670   3.33704
 Alpha virt. eigenvalues --    3.34066   3.34448   3.35125   3.35335   3.35654
 Alpha virt. eigenvalues --    3.35943   3.36167   3.36844   3.36996   3.37437
 Alpha virt. eigenvalues --    3.37460   3.38141   3.38806   3.38864   3.39642
 Alpha virt. eigenvalues --    3.39836   3.39890   3.39984   3.42236   3.43206
 Alpha virt. eigenvalues --    3.43446   3.43894   3.44105   3.44166   3.45021
 Alpha virt. eigenvalues --    3.45310   3.45332   3.45561   3.45870   3.46080
 Alpha virt. eigenvalues --    3.46507   3.46899   3.47275   3.47754   3.47969
 Alpha virt. eigenvalues --    3.47988   3.48245   3.48721   3.49323   3.49610
 Alpha virt. eigenvalues --    3.50488   3.51150   3.51336   3.52590   3.53106
 Alpha virt. eigenvalues --    3.53845   3.53991   3.54149   3.54597   3.55729
 Alpha virt. eigenvalues --    3.56682   3.56882   3.58219   3.58460   3.59164
 Alpha virt. eigenvalues --    3.59310   3.59447   3.60211   3.60844   3.61182
 Alpha virt. eigenvalues --    3.61952   3.63034   3.63119   3.63255   3.63515
 Alpha virt. eigenvalues --    3.64012   3.64488   3.65294   3.65470   3.65481
 Alpha virt. eigenvalues --    3.66354   3.66680   3.66853   3.66960   3.67073
 Alpha virt. eigenvalues --    3.67740   3.67865   3.69579   3.69867   3.70450
 Alpha virt. eigenvalues --    3.72322   3.72770   3.73245   3.73577   3.73861
 Alpha virt. eigenvalues --    3.74091   3.74378   3.74514   3.74948   3.75048
 Alpha virt. eigenvalues --    3.76469   3.76728   3.77367   3.77472   3.78104
 Alpha virt. eigenvalues --    3.78350   3.78920   3.79107   3.81245   3.81712
 Alpha virt. eigenvalues --    3.82291   3.82718   3.83055   3.83948   3.86075
 Alpha virt. eigenvalues --    3.86850   3.87079   3.87844   3.87963   3.88617
 Alpha virt. eigenvalues --    3.88728   3.89381   3.89632   3.89864   3.89960
 Alpha virt. eigenvalues --    3.90633   3.90990   3.92185   3.92685   3.92732
 Alpha virt. eigenvalues --    3.92790   3.94619   3.95631   3.95914   3.96011
 Alpha virt. eigenvalues --    3.96514   3.96933   3.97886   3.98781   3.99496
 Alpha virt. eigenvalues --    4.01242   4.02287   4.02384   4.02754   4.03648
 Alpha virt. eigenvalues --    4.04858   4.06594   4.06627   4.06680   4.08326
 Alpha virt. eigenvalues --    4.08520   4.08874   4.08899   4.09356   4.10474
 Alpha virt. eigenvalues --    4.10870   4.11182   4.11454   4.12177   4.12629
 Alpha virt. eigenvalues --    4.13022   4.14439   4.14977   4.14986   4.15085
 Alpha virt. eigenvalues --    4.15185   4.15525   4.16914   4.17743   4.18541
 Alpha virt. eigenvalues --    4.19108   4.19757   4.20086   4.20172   4.20873
 Alpha virt. eigenvalues --    4.21948   4.22432   4.23090   4.23285   4.23948
 Alpha virt. eigenvalues --    4.24276   4.24454   4.24610   4.25353   4.28704
 Alpha virt. eigenvalues --    4.28842   4.28887   4.28959   4.29360   4.29980
 Alpha virt. eigenvalues --    4.30394   4.31665   4.31706   4.31853   4.32001
 Alpha virt. eigenvalues --    4.33281   4.34262   4.34763   4.34941   4.35040
 Alpha virt. eigenvalues --    4.35104   4.35781   4.36554   4.38281   4.38680
 Alpha virt. eigenvalues --    4.38954   4.39483   4.40399   4.40691   4.41240
 Alpha virt. eigenvalues --    4.41796   4.41995   4.43383   4.43525   4.44656
 Alpha virt. eigenvalues --    4.44803   4.44949   4.45308   4.45716   4.46081
 Alpha virt. eigenvalues --    4.46355   4.47071   4.47597   4.47822   4.48656
 Alpha virt. eigenvalues --    4.50556   4.51452   4.52370   4.53157   4.54079
 Alpha virt. eigenvalues --    4.54224   4.55341   4.55955   4.56724   4.56852
 Alpha virt. eigenvalues --    4.56919   4.58371   4.58380   4.58927   4.59150
 Alpha virt. eigenvalues --    4.59307   4.60328   4.60336   4.60632   4.60700
 Alpha virt. eigenvalues --    4.61854   4.62975   4.63399   4.64019   4.64610
 Alpha virt. eigenvalues --    4.65131   4.65354   4.66002   4.66221   4.66546
 Alpha virt. eigenvalues --    4.66802   4.67637   4.67874   4.68245   4.68515
 Alpha virt. eigenvalues --    4.68656   4.69500   4.70068   4.71125   4.71662
 Alpha virt. eigenvalues --    4.73472   4.75837   4.75864   4.76003   4.77892
 Alpha virt. eigenvalues --    4.78296   4.79490   4.79687   4.80374   4.80675
 Alpha virt. eigenvalues --    4.81715   4.84334   4.84541   4.85778   4.86308
 Alpha virt. eigenvalues --    4.86519   4.87502   4.88315   4.88804   4.93456
 Alpha virt. eigenvalues --    4.93830   4.94150   4.95849   4.96941   4.97305
 Alpha virt. eigenvalues --    4.97386   4.99690   4.99734   5.02187   5.02508
 Alpha virt. eigenvalues --    5.02540   5.03697   5.04166   5.04282   5.05803
 Alpha virt. eigenvalues --    5.06516   5.07207   5.07979   5.09353   5.10433
 Alpha virt. eigenvalues --    5.10660   5.11836   5.14773   5.15933   5.18589
 Alpha virt. eigenvalues --    5.19071   5.19515   5.20763   5.21335   5.21571
 Alpha virt. eigenvalues --    5.21763   5.22364   5.23933   5.24522   5.25943
 Alpha virt. eigenvalues --    5.26612   5.26937   5.27227   5.27755   5.29415
 Alpha virt. eigenvalues --    5.29552   5.32892   5.35515   5.35666   5.35932
 Alpha virt. eigenvalues --    5.37467   5.37839   5.38784   5.42189   5.43019
 Alpha virt. eigenvalues --    5.43578   5.43611   5.43710   5.46520   5.49671
 Alpha virt. eigenvalues --    5.51507   5.51749   5.55082   5.55371   5.57587
 Alpha virt. eigenvalues --    5.58432   5.59844   5.60242   5.61081   5.64767
 Alpha virt. eigenvalues --    5.64886   5.66115   5.68055   5.71952   5.72102
 Alpha virt. eigenvalues --    5.73580   5.75442   5.78305   5.78690   5.81532
 Alpha virt. eigenvalues --    5.83306   5.84880   5.88987   5.89769   5.91272
 Alpha virt. eigenvalues --    5.93620   5.93984   5.94259   5.99356   6.00767
 Alpha virt. eigenvalues --    6.05556   6.06314   6.11379   6.14174   6.14316
 Alpha virt. eigenvalues --    6.18510   6.19127   6.21343   6.23745   6.26033
 Alpha virt. eigenvalues --    6.29864   6.30325   6.31892   6.33760   6.37443
 Alpha virt. eigenvalues --    6.43951   6.44229   6.45420   6.46940   6.50164
 Alpha virt. eigenvalues --    6.58881   6.62070   6.62105   6.64778   6.68361
 Alpha virt. eigenvalues --    6.73970   6.76868   6.83339   6.94559   7.14040
 Alpha virt. eigenvalues --    7.15131   7.48949   7.84884  10.53924  10.57104
 Alpha virt. eigenvalues --   11.82876  12.16810  12.32479  12.59173  12.68417
 Alpha virt. eigenvalues --   13.12530  13.37535  13.43902  13.45560  13.56289
 Alpha virt. eigenvalues --   13.63703  13.88148  14.10214  14.36294  14.44123
 Alpha virt. eigenvalues --   14.59040  15.32406  15.74434  15.79086  15.99589
 Alpha virt. eigenvalues --   16.01492  16.36962  17.13739  17.16641  17.32142
          Condensed to atoms (all electrons):
 Mulliken charges:
               1
     1  C   -0.177464
     2  C   -0.192023
     3  C    0.142161
     4  C   -0.198408
     5  C    0.142161
     6  C   -0.192023
     7  C   -0.177464
     8  C   -0.165087
     9  C    0.071038
    10  C    0.071038
    11  C   -0.165087
    12  C   -0.177464
    13  C   -0.192023
    14  C    0.142161
    15  C   -0.198408
    16  C    0.142161
    17  C   -0.192023
    18  C   -0.177464
    19  C   -0.165087
    20  C    0.071038
    21  C    0.071038
    22  C   -0.165087
    23  C   -0.024278
    24  C   -0.093833
    25  C   -0.024278
    26  C   -0.093833
    27  C   -0.024278
    28  C   -0.024278
    29  H    0.146223
    30  H    0.139583
    31  H    0.130577
    32  H    0.139583
    33  H    0.146223
    34  H    0.140678
    35  H    0.140678
    36  H    0.146223
    37  H    0.139583
    38  H    0.130577
    39  H    0.139583
    40  H    0.146223
    41  H    0.140678
    42  H    0.140678
 Sum of Mulliken charges =  -0.00000
 Mulliken charges with hydrogens summed into heavy atoms:
               1
     1  C   -0.031241
     2  C   -0.052440
     3  C    0.142161
     4  C   -0.067831
     5  C    0.142161
     6  C   -0.052440
     7  C   -0.031241
     8  C   -0.024408
     9  C    0.071038
    10  C    0.071038
    11  C   -0.024408
    12  C   -0.031241
    13  C   -0.052440
    14  C    0.142161
    15  C   -0.067831
    16  C    0.142161
    17  C   -0.052440
    18  C   -0.031241
    19  C   -0.024408
    20  C    0.071038
    21  C    0.071038
    22  C   -0.024408
    23  C   -0.024278
    24  C   -0.093833
    25  C   -0.024278
    26  C   -0.093833
    27  C   -0.024278
    28  C   -0.024278
 Electronic spatial extent (au):  <R**2>=           8779.2533
 Charge=              0.0000 electrons
 Dipole moment (field-independent basis, Debye):
    X=              0.0000    Y=              0.0000    Z=              0.0000  Tot=              0.0000
 Unable to Open any file for archive entry.
 1\1\GINC-NODE01\SP\RCCSD(T)-FC\CC-pVTZ\C28H14\XUHJ\01-Feb-2025\0\\#T C
 CSD(T)/cc-pVTZ symm=veryloose geom=allcheck\\c1cc2cc3cccc4c5cccc6cc7cc
 cc8c(c1)c2c(c34)c(c78)c65\\0,1\C,0,0.,-3.652536,-2.895185\C,0,0.,-2.46
 1429,-3.581866\C,0,0.,-1.223769,-2.874783\C,0,0.,0.,-3.556545\C,0,0.,1
 .223769,-2.874783\C,0,0.,2.461429,-3.581866\C,0,0.,3.652536,-2.895185\
 C,0,0.,3.663769,-1.482781\C,0,0.,2.48892,-0.736028\C,0,0.,2.48892,0.73
 6028\C,0,0.,3.663769,1.482781\C,0,0.,3.652536,2.895185\C,0,0.,2.461429
 ,3.581866\C,0,0.,1.223769,2.874783\C,0,0.,0.,3.556545\C,0,0.,-1.223769
 ,2.874783\C,0,0.,-2.461429,3.581866\C,0,0.,-3.652536,2.895185\C,0,0.,-
 3.663769,1.482781\C,0,0.,-2.48892,0.736028\C,0,0.,-2.48892,-0.736028\C
 ,0,0.,-3.663769,-1.482781\C,0,0.,-1.231068,-1.432515\C,0,0.,0.,-0.7262
 64\C,0,0.,1.231068,-1.432515\C,0,0.,0.,0.726264\C,0,0.,-1.231068,1.432
 515\C,0,0.,1.231068,1.432515\H,0,0.,-4.602856,-3.436962\H,0,0.,-2.4419
 78,-4.67552\H,0,0.,0.,-4.650643\H,0,0.,2.441978,-4.67552\H,0,0.,4.6028
 56,-3.436962\H,0,0.,4.631586,-0.979983\H,0,0.,4.631586,0.979983\H,0,0.
 ,4.602856,3.436962\H,0,0.,2.441978,4.67552\H,0,0.,0.,4.650643\H,0,0.,-
 2.441978,4.67552\H,0,0.,-4.602856,3.436962\H,0,0.,-4.631586,0.979983\H
 ,0,0.,-4.631586,-0.979983\\Version=ES64L-G16RevC.01\State=1-AG\HF=-106
 8.8538419\MP2=-1073.2114465\MP3=-1073.210531\MP4D=-1073.3297211\MP4DQ=
 -1073.1565572\MP4SDQ=-1073.1968431\CCSD=-1073.198525\CCSD(T)=-1073.472
 0414\RMSD=5.170e-09\PG=D02H [C2"(H1C1C1.C1C1H1),SG(C24H12)]\\@
 The archive entry for this job was punched.


 THE WORLD IS MADE UP OF THE WILLS, THE WON'TS, AND THE CANT'S:
 THE WILLS DO EVERYTHING,
 THE WON'TS DO NOTHING,
 THE CAN'TS CAN'T DO ANYTHING.

                               -- FROM WALT DISNEY'S "BLACK HOLE"
 Job cpu time:      83 days  5 hours 24 minutes 40.0 seconds.
 Elapsed time:       5 days  4 hours 52 minutes 20.7 seconds.
 File lengths (MBytes):  RWF= 448956 Int=      0 D2E=      0 Chk=     76 Scr=      1
 Normal termination of Gaussian 16 at Sat Feb  1 11:36:23 2025.
