 Entering Gaussian System, Link 0=g16
 Initial command:
 /opt/g16/l1.exe "/tmp/Gau-378298.inp" -scrdir="/tmp/"
 Entering Link 1 = /opt/g16/l1.exe PID=    378299.
  
 Copyright (c) 1988-2019, Gaussian, Inc.  All Rights Reserved.
  
 This is part of the Gaussian(R) 16 program.  It is based on
 the Gaussian(R) 09 system (copyright 2009, Gaussian, Inc.),
 the Gaussian(R) 03 system (copyright 2003, Gaussian, Inc.),
 the Gaussian(R) 98 system (copyright 1998, Gaussian, Inc.),
 the Gaussian(R) 94 system (copyright 1995, Gaussian, Inc.),
 the Gaussian 92(TM) system (copyright 1992, Gaussian, Inc.),
 the Gaussian 90(TM) system (copyright 1990, Gaussian, Inc.),
 the Gaussian 88(TM) system (copyright 1988, Gaussian, Inc.),
 the Gaussian 86(TM) system (copyright 1986, Carnegie Mellon
 University), and the Gaussian 82(TM) system (copyright 1983,
 Carnegie Mellon University). Gaussian is a federally registered
 trademark of Gaussian, Inc.
  
 This software contains proprietary and confidential information,
 including trade secrets, belonging to Gaussian, Inc.
  
 This software is provided under written license and may be
 used, copied, transmitted, or stored only in accord with that
 written license.
  
 The following legend is applicable only to US Government
 contracts under FAR:
  
                    RESTRICTED RIGHTS LEGEND
  
 Use, reproduction and disclosure by the US Government is
 subject to restrictions as set forth in subparagraphs (a)
 and (c) of the Commercial Computer Software - Restricted
 Rights clause in FAR 52.227-19.
  
 Gaussian, Inc.
 340 Quinnipiac St., Bldg. 40, Wallingford CT 06492
  
  
 ---------------------------------------------------------------
 Warning -- This program may not be used in any manner that
 competes with the business of Gaussian, Inc. or will provide
 assistance to any competitor of Gaussian, Inc.  The licensee
 of this program is prohibited from giving any competitor of
 Gaussian, Inc. access to this program.  By using this program,
 the user acknowledges that Gaussian, Inc. is engaged in the
 business of creating and licensing software in the field of
 computational chemistry and represents and warrants to the
 licensee that it is not a competitor of Gaussian, Inc. and that
 it will not use this program in any manner prohibited above.
 ---------------------------------------------------------------
  

 Cite this work as:
 Gaussian 16, Revision C.01,
 M. J. Frisch, G. W. Trucks, H. B. Schlegel, G. E. Scuseria, 
 M. A. Robb, J. R. Cheeseman, G. Scalmani, V. Barone, 
 G. A. Petersson, H. Nakatsuji, X. Li, M. Caricato, A. V. Marenich, 
 J. Bloino, B. G. Janesko, R. Gomperts, B. Mennucci, H. P. Hratchian, 
 J. V. Ortiz, A. F. Izmaylov, J. L. Sonnenberg, D. Williams-Young, 
 F. Ding, F. Lipparini, F. Egidi, J. Goings, B. Peng, A. Petrone, 
 T. Henderson, D. Ranasinghe, V. G. Zakrzewski, J. Gao, N. Rega, 
 G. Zheng, W. Liang, M. Hada, M. Ehara, K. Toyota, R. Fukuda, 
 J. Hasegawa, M. Ishida, T. Nakajima, Y. Honda, O. Kitao, H. Nakai, 
 T. Vreven, K. Throssell, J. A. Montgomery, Jr., J. E. Peralta, 
 F. Ogliaro, M. J. Bearpark, J. J. Heyd, E. N. Brothers, K. N. Kudin, 
 V. N. Staroverov, T. A. Keith, R. Kobayashi, J. Normand, 
 K. Raghavachari, A. P. Rendell, J. C. Burant, S. S. Iyengar, 
 J. Tomasi, M. Cossi, J. M. Millam, M. Klene, C. Adamo, R. Cammi, 
 J. W. Ochterski, R. L. Martin, K. Morokuma, O. Farkas, 
 J. B. Foresman, and D. J. Fox, Gaussian, Inc., Wallingford CT, 2019.
 
 ******************************************
 Gaussian 16:  ES64L-G16RevC.01  3-Jul-2019
                11-Feb-2025 
 ******************************************
 %nprocshared=16
 Will use up to   16 processors via shared memory.
 %mem=70400MB
 %chk=SLIUAWYAILUBJU-UHFFFAOYSA-N-1.chk
 ---------------------------------
 #T CCSD(T)/cc-pVDZ symm=veryloose
 ---------------------------------
 --------------------------------
 c1ccc2cc3cc4cc5ccccc5cc4cc3cc2c1
 --------------------------------
 Symbolic Z-matrix:
 Charge =  0 Multiplicity = 1
 C                     0.        6.1251    0.71716 
 C                     0.        6.1251   -0.71716 
 C                     0.        4.94616  -1.41183 
 C                     0.        3.68254  -0.72809 
 C                     0.        2.46976  -1.40928 
 C                     0.        1.22775  -0.72897 
 C                     0.        0.       -1.40992 
 C                     0.       -1.22775  -0.72897 
 C                     0.       -2.46976  -1.40928 
 C                     0.       -3.68254  -0.72809 
 C                     0.       -4.94616  -1.41183 
 C                     0.       -6.1251   -0.71716 
 C                     0.       -6.1251    0.71716 
 C                     0.       -4.94616   1.41183 
 C                     0.       -3.68254   0.72809 
 C                     0.       -2.46976   1.40928 
 C                     0.       -1.22775   0.72897 
 C                     0.        0.        1.40992 
 C                     0.        1.22775   0.72897 
 C                     0.        2.46976   1.40928 
 C                     0.        3.68254   0.72809 
 C                     0.        4.94616   1.41183 
 H                     0.        7.07907   1.25269 
 H                     0.        7.07907  -1.25269 
 H                     0.        4.94393  -2.50624 
 H                     0.        2.47     -2.5039 
 H                     0.        0.       -2.50442 
 H                     0.       -2.47     -2.5039 
 H                     0.       -4.94393  -2.50624 
 H                     0.       -7.07907  -1.25269 
 H                     0.       -7.07907   1.25269 
 H                     0.       -4.94393   2.50624 
 H                     0.       -2.47      2.5039 
 H                     0.        0.        2.50442 
 H                     0.        2.47      2.5039 
 H                     0.        4.94393   2.50624 
 
                    Distance matrix (angstroms):
                    1          2          3          4          5
     1  C    0.000000
     2  C    1.434320   0.000000
     3  C    2.433617   1.368378   0.000000
     4  C    2.838102   2.442580   1.436744   0.000000
     5  C    4.228856   3.720283   2.476400   1.390990   0.000000
     6  C    5.106397   4.897359   3.780589   2.454789   1.416121
     7  C    6.483926   6.164150   4.946161   3.745131   2.469762
     8  C    7.493712   7.352860   6.211562   4.910295   3.759579
     9  C    8.854002   8.622682   7.415923   6.189900   4.939524
    10  C    9.913554   9.807646   8.655751   7.365084   6.189900
    11  C   11.274102  11.093031   9.892322   8.655751   7.415923
    12  C   12.333879  12.250196  11.093031   9.807646   8.622682
    13  C   12.250196  12.333879  11.274102   9.913554   8.854002
    14  C   11.093031  11.274102  10.287424   8.890094   7.934391
    15  C    9.807646   9.913554   8.890094   7.507657   6.513001
    16  C    8.622682   8.854002   7.934391   6.513001   5.687104
    17  C    7.352860   7.493712   6.534543   5.121917   4.271269
    18  C    6.164150   6.483926   5.694451   4.258191   3.748012
    19  C    4.897359   5.106397   4.290641   2.854649   2.472794
    20  C    3.720283   4.228856   3.753825   2.457473   2.818556
    21  C    2.442580   2.838102   2.485153   1.456178   2.457473
    22  C    1.368378   2.433617   2.823660   2.485153   3.753825
    23  H    1.094005   2.188689   3.413055   3.931902   5.322758
    24  H    2.188689   1.094005   2.138834   3.436798   4.611963
    25  H    3.432997   2.143820   1.094412   2.180119   2.706443
    26  H    4.871856   4.068438   2.706288   2.150295   1.094624
    27  H    6.920651   6.380527   5.065399   4.088578   2.701678
    28  H    9.178832   8.778847   7.496137   6.403693   5.059590
    29  H   11.528820  11.212680   9.950459   8.807828   7.494408
    30  H   13.350290  13.215019  12.026280  10.774387   9.550112
    31  H   13.215019  13.350290  12.316889  10.942380   9.912930
    32  H   11.212680  11.528820  10.637912   9.212866   8.384158
    33  H    8.778847   9.178832   8.386442   6.949787   6.301922
    34  H    6.380527   6.920651   6.308845   4.900024   4.627825
    35  H    4.068438   4.871856   4.632961   3.451959   3.913180
    36  H    2.143820   3.432997   3.918071   3.471597   4.631716
                    6          7          8          9         10
     6  C    0.000000
     7  C    1.403946   0.000000
     8  C    2.455506   1.403946   0.000000
     9  C    3.759579   2.469762   1.416121   0.000000
    10  C    4.910295   3.745131   2.454789   1.390990   0.000000
    11  C    6.211562   4.946161   3.780589   2.476400   1.436744
    12  C    7.352860   6.164150   4.897359   3.720283   2.442580
    13  C    7.493712   6.483926   5.106397   4.228856   2.838102
    14  C    6.534543   5.694451   4.290641   3.753825   2.485153
    15  C    5.121917   4.258191   2.854649   2.457473   1.456178
    16  C    4.271269   3.748012   2.472794   2.818556   2.457473
    17  C    2.855717   2.466220   1.457948   2.472794   2.854649
    18  C    2.466220   2.819838   2.466220   3.748012   4.258191
    19  C    1.457948   2.466220   2.855717   4.271269   5.121917
    20  C    2.472794   3.748012   4.271269   5.687104   6.513001
    21  C    2.854649   4.258191   5.121917   6.513001   7.507657
    22  C    4.290641   5.694451   6.534543   7.934391   8.890094
    23  H    6.177771   7.563244   8.539920   9.912930  10.942380
    24  H    5.874704   7.080812   8.323312   9.550112  10.774387
    25  H    4.119302   5.064026   6.422487   7.494408   8.807828
    26  H    2.166460   2.701425   4.101676   5.059590   6.403693
    27  H    2.158608   1.094502   2.158608   2.701678   4.088578
    28  H    4.101676   2.701425   2.166460   1.094624   2.150295
    29  H    6.422487   5.064026   4.119302   2.706443   2.180119
    30  H    8.323312   7.080812   5.874704   4.611963   3.436798
    31  H    8.539920   7.563244   6.177771   5.322758   3.931902
    32  H    6.968234   6.307039   4.927127   4.631716   3.471597
    33  H    4.911707   4.628055   3.463331   3.913180   3.451959
    34  H    3.458644   3.914340   3.458644   4.627825   4.900024
    35  H    3.463331   4.628055   4.911707   6.301922   6.949787
    36  H    4.927127   6.307039   6.968234   8.384158   9.212866
                   11         12         13         14         15
    11  C    0.000000
    12  C    1.368378   0.000000
    13  C    2.433617   1.434320   0.000000
    14  C    2.823660   2.433617   1.368378   0.000000
    15  C    2.485153   2.838102   2.442580   1.436744   0.000000
    16  C    3.753825   4.228856   3.720283   2.476400   1.390990
    17  C    4.290641   5.106397   4.897359   3.780589   2.454789
    18  C    5.694451   6.483926   6.164150   4.946161   3.745131
    19  C    6.534543   7.493712   7.352860   6.211562   4.910295
    20  C    7.934391   8.854002   8.622682   7.415923   6.189900
    21  C    8.890094   9.913554   9.807646   8.655751   7.365084
    22  C   10.287424  11.274102  11.093031   9.892322   8.655751
    23  H   12.316889  13.350290  13.215019  12.026280  10.774387
    24  H   12.026280  13.215019  13.350290  12.316889  10.942380
    25  H    9.950459  11.212680  11.528820  10.637912   9.212866
    26  H    7.496137   8.778847   9.178832   8.386442   6.949787
    27  H    5.065399   6.380527   6.920651   6.308845   4.900024
    28  H    2.706288   4.068438   4.871856   4.632961   3.451959
    29  H    1.094412   2.143820   3.432997   3.918071   3.471597
    30  H    2.138834   1.094005   2.188689   3.413055   3.931902
    31  H    3.413055   2.188689   1.094005   2.138834   3.436798
    32  H    3.918071   3.432997   2.143820   1.094412   2.180119
    33  H    4.632961   4.871856   4.068438   2.706288   2.150295
    34  H    6.308845   6.920651   6.380527   5.065399   4.088578
    35  H    8.386442   9.178832   8.778847   7.496137   6.403693
    36  H   10.637912  11.528820  11.212680   9.950459   8.807828
                   16         17         18         19         20
    16  C    0.000000
    17  C    1.416121   0.000000
    18  C    2.469762   1.403946   0.000000
    19  C    3.759579   2.455506   1.403946   0.000000
    20  C    4.939524   3.759579   2.469762   1.416121   0.000000
    21  C    6.189900   4.910295   3.745131   2.454789   1.390990
    22  C    7.415923   6.211562   4.946161   3.780589   2.476400
    23  H    9.550112   8.323312   7.080812   5.874704   4.611963
    24  H    9.912930   8.539920   7.563244   6.177771   5.322758
    25  H    8.384158   6.968234   6.307039   4.927127   4.631716
    26  H    6.301922   4.911707   4.628055   3.463331   3.913180
    27  H    4.627825   3.458644   3.914340   3.458644   4.627825
    28  H    3.913180   3.463331   4.628055   4.911707   6.301922
    29  H    4.631716   4.927127   6.307039   6.968234   8.384158
    30  H    5.322758   6.177771   7.563244   8.539920   9.912930
    31  H    4.611963   5.874704   7.080812   8.323312   9.550112
    32  H    2.706443   4.119302   5.064026   6.422487   7.494408
    33  H    1.094624   2.166460   2.701425   4.101676   5.059590
    34  H    2.701678   2.158608   1.094502   2.158608   2.701678
    35  H    5.059590   4.101676   2.701425   2.166460   1.094624
    36  H    7.494408   6.422487   5.064026   4.119302   2.706443
                   21         22         23         24         25
    21  C    0.000000
    22  C    1.436744   0.000000
    23  H    3.436798   2.138834   0.000000
    24  H    3.931902   3.413055   2.505378   0.000000
    25  H    3.471597   3.918071   4.323003   2.475923   0.000000
    26  H    3.451959   4.632961   5.946046   4.775879   2.473931
    27  H    4.900024   6.308845   8.014303   7.188881   4.943930
    28  H    6.949787   8.386442  10.261415   9.630690   7.413930
    29  H    9.212866  10.637912  12.596904  12.088169   9.887860
    30  H   10.942380  12.316889  14.378095  14.158132  12.088169
    31  H   10.774387  12.026280  14.158132  14.378095  12.596904
    32  H    8.807828   9.950459  12.088169  12.596904  11.085790
    33  H    6.403693   7.496137   9.630690  10.261415   8.948066
    34  H    4.088578   5.065399   7.188881   8.014303   7.039117
    35  H    2.150295   2.706288   4.775879   5.946046   5.587652
    36  H    2.180119   1.094412   2.475923   4.323003   5.012480
                   26         27         28         29         30
    26  H    0.000000
    27  H    2.470000   0.000000
    28  H    4.940000   2.470000   0.000000
    29  H    7.413930   4.943930   2.473931   0.000000
    30  H    9.630690   7.188881   4.775879   2.475923   0.000000
    31  H   10.261415   8.014303   5.946046   4.323003   2.505378
    32  H    8.948066   7.039117   5.587652   5.012480   4.323003
    33  H    7.034323   5.584281   5.007804   5.587652   5.946046
    34  H    5.584281   5.008842   5.584281   7.039117   8.014303
    35  H    5.007804   5.584281   7.034323   8.948066  10.261415
    36  H    5.587652   7.039117   8.948066  11.085790  12.596904
                   31         32         33         34         35
    31  H    0.000000
    32  H    2.475923   0.000000
    33  H    4.775879   2.473931   0.000000
    34  H    7.188881   4.943930   2.470000   0.000000
    35  H    9.630690   7.413930   4.940000   2.470000   0.000000
    36  H   12.088169   9.887860   7.413930   4.943930   2.473931
                   36
    36  H    0.000000
 Framework group  D2H[C2"(HC.CH),SG(C20H12)]
 Deg. of freedom    18
                         Standard orientation:                         
 ---------------------------------------------------------------------
 Center     Atomic      Atomic             Coordinates (Angstroms)
 Number     Number       Type             X           Y           Z
 ---------------------------------------------------------------------
      1          6           0        0.000000    6.125098    0.717160
      2          6           0        0.000000    6.125098   -0.717160
      3          6           0        0.000000    4.946161   -1.411830
      4          6           0        0.000000    3.682542   -0.728089
      5          6           0        0.000000    2.469762   -1.409278
      6          6           0        0.000000    1.227753   -0.728974
      7          6           0        0.000000    0.000000   -1.409919
      8          6           0       -0.000000   -1.227753   -0.728974
      9          6           0       -0.000000   -2.469762   -1.409278
     10          6           0       -0.000000   -3.682542   -0.728089
     11          6           0       -0.000000   -4.946161   -1.411830
     12          6           0       -0.000000   -6.125098   -0.717160
     13          6           0       -0.000000   -6.125098    0.717160
     14          6           0       -0.000000   -4.946161    1.411830
     15          6           0       -0.000000   -3.682542    0.728089
     16          6           0       -0.000000   -2.469762    1.409278
     17          6           0       -0.000000   -1.227753    0.728974
     18          6           0       -0.000000    0.000000    1.409919
     19          6           0       -0.000000    1.227753    0.728974
     20          6           0       -0.000000    2.469762    1.409278
     21          6           0       -0.000000    3.682542    0.728089
     22          6           0       -0.000000    4.946161    1.411830
     23          1           0        0.000000    7.079066    1.252689
     24          1           0        0.000000    7.079066   -1.252689
     25          1           0        0.000000    4.943930   -2.506240
     26          1           0        0.000000    2.470000   -2.503902
     27          1           0        0.000000    0.000000   -2.504421
     28          1           0       -0.000000   -2.470000   -2.503902
     29          1           0       -0.000000   -4.943930   -2.506240
     30          1           0       -0.000000   -7.079066   -1.252689
     31          1           0       -0.000000   -7.079066    1.252689
     32          1           0       -0.000000   -4.943930    2.506240
     33          1           0       -0.000000   -2.470000    2.503902
     34          1           0       -0.000000    0.000000    2.504421
     35          1           0       -0.000000    2.470000    2.503902
     36          1           0       -0.000000    4.943930    2.506240
 ---------------------------------------------------------------------
 Rotational constants (GHZ):           1.3163616           0.1170854           0.1075217
   378 basis functions,   824 primitive gaussians,   400 cartesian basis functions
    73 alpha electrons       73 beta electrons
       nuclear repulsion energy      1489.8866921846 Hartrees.
 NAtoms=   36 NActive=   36 NUniq=   10 SFac= 4.00D+00 NAtFMM=   60 NAOKFM=F Big=F
 ExpMin= 1.22D-01 ExpMax= 6.67D+03 ExpMxC= 2.28D+02 IAcc=3 IRadAn=         5 AccDes= 0.00D+00
 Harris functional with IExCor=  205 and IRadAn=       5 diagonalized for initial guess.
 HarFok:  IExCor=  205 AccDes= 0.00D+00 IRadAn=         5 IDoV= 1 UseB2=F ITyADJ=14
 ICtDFT=  3500011 ScaDFX=  1.000000  1.000000  1.000000  1.000000
 FoFCou: FMM=F IPFlag=           0 FMFlag=      100000 FMFlg1=           0
         NFxFlg=           0 DoJE=T BraDBF=F KetDBF=T FulRan=T
         wScrn=  0.000000 ICntrl=       500 IOpCl=  0 I1Cent=   200000004 NGrid=           0
         NMat0=    1 NMatS0=      1 NMatT0=    0 NMatD0=    1 NMtDS0=    0 NMtDT0=    0
 Petite list used in FoFCou.
 Initial guess orbital symmetries:
       Occupied  (B2U) (AG) (B3G) (B1U) (B1U) (B3G) (AG) (B2U)
                 (B1U) (B3G) (B2U) (AG) (B1U) (AG) (B2U) (AG) (B1U)
                 (B3G) (B2U) (AG) (B3G) (B1U) (AG) (B2U) (AG) (B2U)
                 (B1U) (AG) (B3G) (B1U) (B2U) (B3G) (B1U) (AG)
                 (B3G) (B2U) (AG) (B2U) (AG) (B1U) (AG) (B2U) (B3G)
                 (B2U) (AG) (B1U) (B2U) (AG) (B1U) (B3G) (B2U)
                 (B1U) (B3G) (AG) (B3G) (B1U) (B3U) (B1G) (B2U)
                 (B1U) (B3G) (B3U) (AG) (B2U) (AG) (B1G) (B2G)
                 (AU) (B3U) (B2G) (B1G) (AU) (B2G)
       Virtual   (B3U) (B1G) (AU) (B3U) (B2G) (B1G) (B3U) (AU)
                 (B2G) (B1U) (AG) (B2U) (AG) (B3G) (B2U) (AU) (B1U)
                 (AG) (B3G) (B2G) (B2U) (B3G) (B1U) (AG) (AG) (B1U)
                 (B3G) (B1U) (B3G) (B1U) (B2U) (B3G) (B1U) (B2U)
                 (AG) (B2U) (AG) (B2U) (AG) (B2U) (AG) (B1U) (B3G)
                 (AG) (B3G) (B2U) (B1U) (B3U) (B3G) (B1G) (B1U)
                 (B1U) (B2U) (AG) (B3G) (B2G) (B3U) (AG) (B2U)
                 (B3G) (B1U) (B3G) (B1G) (AU) (AG) (B2U) (AG) (B1U)
                 (B1U) (B3G) (B2U) (B3U) (B2U) (B2G) (AG) (B1U)
                 (B3U) (AG) (AU) (B1G) (B3G) (B2G) (B1G) (B3U)
                 (AU) (B2U) (AG) (B1U) (B3G) (B2U) (B3U) (AG) (B1U)
                 (AG) (B3G) (B1U) (B2G) (B1G) (B3G) (B1U) (AU)
                 (B2U) (AG) (B2G) (B2G) (AU) (B1G) (B1U) (B3U)
                 (B3G) (B3G) (B3U) (B1U) (B1G) (B2U) (B1U) (AG)
                 (B2U) (AG) (B1G) (B3G) (B3U) (AG) (B2U) (B3G)
                 (B1U) (B2U) (B1G) (B3U) (B2G) (AU) (B2U) (B2G)
                 (AG) (B1G) (B1U) (AU) (B3U) (AG) (B2G) (B3G) (B3G)
                 (AU) (B2U) (B1U) (B1G) (B3G) (B3U) (B2U) (B1U)
                 (B1U) (AG) (B3G) (AG) (B1U) (B2U) (AG) (B2U) (AG)
                 (B3U) (B2G) (B3G) (AU) (B1U) (B1G) (B2U) (B2G)
                 (AU) (B2U) (AG) (B3G) (AG) (B1U) (B2U) (B3G) (AG)
                 (B3U) (AG) (B2U) (AU) (B2G) (AG) (B2U) (B1G) (B3U)
                 (B1U) (B3G) (AG) (B1U) (B2U) (AG) (B3G) (B2G)
                 (B1U) (AG) (B3G) (B2U) (AU) (B2G) (B1U) (B1G)
                 (B2U) (B3U) (B3U) (B1G) (B3G) (AU) (B1G) (B1U)
                 (B2G) (AG) (B2G) (B2U) (AG) (B3G) (B1U) (B2U)
                 (B3U) (B1U) (B3G) (B3G) (AG) (AU) (B1U) (B2U)
                 (B1G) (B1U) (B2U) (B3U) (AG) (AU) (B2U) (B2G)
                 (B3G) (AG) (B1U) (B1G) (B3G) (B3G) (B2U) (B1U)
                 (B3U) (B3G) (B2G) (B1U) (B2U) (AG) (AU) (B1G)
                 (B3G) (B1U) (B3U) (AG) (B2G) (B2U) (AU) (AG) (B1U)
                 (B3G) (B2U) (B3G) (AG) (B1U) (AG) (B2U) (B1U)
                 (AU) (B3G) (B2G) (B1U) (B2G) (AU) (B3G) (B2U)
                 (AG) (AG) (B2U) (B3G) (B1U) (AG) (B3G) (B1U) (B1U)
                 (B2U) (B3G) (AG) (B3G) (B1U) (B2U) (B1U) (AG)
                 (B3G) (B2U) (B1U) (B3G) (AG) (B1U) (B3G) (B2U)
                 (AG) (B1U) (B3G) (B1U) (B1U) (B3G)
 The electronic state of the initial guess is 1-AG.
 Integral accuracy reduced to 1.0D-05 until final iterations.
 Initial convergence to 1.0D-05 achieved.  Increase integral accuracy.
 SCF Done:  E(RHF) =  -841.331494733     A.U. after   15 cycles
            NFock= 15  Conv=0.75D-08     -V/T= 2.0013
 ExpMin= 1.22D-01 ExpMax= 6.67D+03 ExpMxC= 2.28D+02 IAcc=3 IRadAn=         5 AccDes= 0.00D+00
 HarFok:  IExCor=  205 AccDes= 0.00D+00 IRadAn=         5 IDoV=-2 UseB2=F ITyADJ=14
 ICtDFT= 12500011 ScaDFX=  1.000000  1.000000  1.000000  1.000000
 GSVD:  LWork=        -660 too small for GESVD, short by        2750 words or        2750 for optimal perf.
 NROrb=    356 NOA=    51 NOB=    51 NVA=   305 NVB=   305

 **** Warning!!: The largest alpha MO coefficient is  0.18211111D+02

 Semi-Direct transformation.
 ModeAB=           4 MOrb=            51 LenV=    9224049770
 LASXX=    135806395 LTotXX=   135806395 LenRXX=   273008371
 LTotAB=   137201976 MaxLAS=   261210372 LenRXY=           0
 NonZer=   408814766 LenScr=   615627776 LnRSAI=   261210372
 LnScr1=   393352192 LExtra=           0 Total=   1543198711
 MaxDsk=          -1 SrtSym=           T ITran=            4
 JobTyp=0 Pass  1:  I=   1 to  51.
 (rs|ai) integrals will be sorted in core.
 ANorm=    0.1457723082D+01
 E2 =    -0.2850860185D+01 EUMP2 =    -0.84418235491768D+03
 CIDS: In Core Option IDoMem=           1.
 Produce multiple copies of IABC intergrals
 MP4(R+Q)=  0.95738953D-01
 E3=       -0.61447324D-01        EUMP3=      -0.84424380224D+03
 E4(DQ)=    0.14875606D-01        UMP4(DQ)=   -0.84422892663D+03
 E4(SDQ)=  -0.99275959D-02        UMP4(SDQ)=  -0.84425372984D+03
 DE(Corr)=  -2.8163978     E(Corr)=     -844.14789258    
 NORM(A)=   0.14414665D+01
 DE(Corr)=  -2.9166122     E(CORR)=     -844.24810694     Delta=-1.00D-01
 NORM(A)=   0.14810349D+01
 DE(Corr)=  -2.9158743     E(CORR)=     -844.24736904     Delta= 7.38D-04
 NORM(A)=   0.14868559D+01
 DE(Corr)=  -2.9246857     E(CORR)=     -844.25618043     Delta=-8.81D-03
 NORM(A)=   0.14898186D+01
 DE(Corr)=  -2.9258407     E(CORR)=     -844.25733540     Delta=-1.15D-03
 NORM(A)=   0.14910215D+01
 DE(Corr)=  -2.9260368     E(CORR)=     -844.25753150     Delta=-1.96D-04
 NORM(A)=   0.14913764D+01
 DE(Corr)=  -2.9260775     E(CORR)=     -844.25757223     Delta=-4.07D-05
 NORM(A)=   0.14913622D+01
 DE(Corr)=  -2.9261106     E(CORR)=     -844.25760535     Delta=-3.31D-05
 NORM(A)=   0.14914330D+01
 DE(Corr)=  -2.9260756     E(CORR)=     -844.25757034     Delta= 3.50D-05
 NORM(A)=   0.14914252D+01
 DE(Corr)=  -2.9260926     E(CORR)=     -844.25758735     Delta=-1.70D-05
 NORM(A)=   0.14914340D+01
 DE(Corr)=  -2.9260854     E(CORR)=     -844.25758012     Delta= 7.23D-06
 NORM(A)=   0.14914356D+01
 DE(Corr)=  -2.9260879     E(CORR)=     -844.25758261     Delta=-2.48D-06
 NORM(A)=   0.14914361D+01
 DE(Corr)=  -2.9260883     E(CORR)=     -844.25758299     Delta=-3.80D-07
 NORM(A)=   0.14914367D+01
 DE(Corr)=  -2.9260883     E(CORR)=     -844.25758299     Delta= 5.57D-10
 NORM(A)=   0.14914371D+01
 Wavefunction amplitudes converged. E(Corr)=     -844.25758299    
 Largest amplitude= 7.79D-02
 Time for triples=   128434.56 seconds.
 T4(CCSD)= -0.15320057D+00
 T5(CCSD)=  0.30696445D-02
 CCSD(T)= -0.84440771391D+03
 Discarding MO integrals.

 **********************************************************************

            Population analysis using the SCF Density.

 **********************************************************************

 Orbital symmetries:
       Occupied  (AG) (B2U) (B2U) (AG) (B1U) (B3G) (B1U) (B3G)
                 (B1U) (AG) (B2U) (AG) (B3G) (B1U) (B2U) (AG) (B3G)
                 (B1U) (B2U) (AG) (B3G) (B1U) (AG) (B2U) (AG) (B2U)
                 (B1U) (B3G) (AG) (B1U) (B2U) (B3G) (B1U) (AG)
                 (B3G) (B2U) (AG) (B2U) (AG) (B1U) (B3G) (AG) (B2U)
                 (AG) (B2U) (B1U) (B1U) (B3G) (B2U) (AG) (B1U)
                 (B3G) (B1U) (AG) (B2U) (B3G) (B3U) (B2U) (B1G)
                 (B1U) (AG) (B3U) (B3G) (B2U) (AG) (B1G) (B2G)
                 (AU) (B3U) (B2G) (B1G) (AU) (B2G)
       Virtual   (B3U) (B1G) (AU) (B3U) (B2G) (B1U) (B1G) (B2U)
                 (AG) (B3U) (B3G) (AG) (B2U) (B1U) (AG) (B3G) (B1U)
                 (B2U) (AU) (B3G) (AG) (B1U) (B2G) (B3G) (AU) (B1U)
                 (B2G) (AG) (B2U) (B1U) (B3G) (B2U) (AG) (B3G)
                 (B1U) (B2U) (AG) (AG) (B2U) (B2U) (AG) (AG) (B2U)
                 (B1U) (B3G) (B3G) (B1U) (B3G) (B3U) (AG) (B2U)
                 (B1G) (B1U) (B1U) (B3U) (AG) (B3G) (B2G) (AU)
                 (B1U) (B1G) (B3G) (B2U) (B1U) (B3G) (B2G) (AG)
                 (B2U) (B1U) (AG) (B3U) (B2U) (B3G) (AU) (B1U)
                 (B2U) (AG) (B3U) (AG) (B1G) (B2G) (B1G) (B3U)
                 (B3G) (AU) (B2U) (AG) (B1U) (AG) (B3U) (B2G) (B1G)
                 (B2U) (B1U) (B3G) (B1U) (B2U) (AG) (AG) (AU) (B3G)
                 (B3G) (B2G) (B1U) (B2G) (AU) (B1G) (B3U) (B1U)
                 (B3U) (B3G) (B3G) (B2U) (AG) (B1U) (B1G) (AG)
                 (B1U) (B3G) (B2U) (B1G) (B3G) (B2U) (B3U) (AG)
                 (B2U) (B1U) (B3U) (AG) (B1G) (B2U) (B2G) (AU)
                 (B1U) (B2G) (B1G) (AU) (AG) (B3G) (B3U) (B2U)
                 (B3G) (B2G) (B1U) (AU) (B3G) (B1G) (B1U) (B2U)
                 (B1U) (B3U) (AG) (B3G) (AG) (B1U) (B2U) (AG) (B2U)
                 (AG) (B3U) (B2G) (B3G) (B1U) (AU) (B1G) (B3G)
                 (AU) (B2U) (B2G) (AG) (B1U) (B2U) (AG) (AG) (B3G)
                 (B3U) (AU) (B2G) (AG) (B2U) (B2U) (B1G) (B3U)
                 (AG) (B2U) (B1U) (B3G) (AG) (B1U) (B2G) (B2U)
                 (B3G) (AG) (B1U) (AU) (B1G) (B2G) (B3U) (B3G)
                 (AG) (B2U) (AU) (B3U) (B1G) (B3G) (B2U) (B1U)
                 (B2G) (B3G) (B1G) (AG) (B1U) (B2U) (B1U) (B2G)
                 (B1U) (B3G) (AG) (B1U) (B3U) (AU) (B2U) (AG) (B2U)
                 (B3U) (B3G) (B1G) (B1U) (B2U) (AU) (B3G) (AG)
                 (B2U) (B1U) (B1G) (B2G) (AG) (B3G) (B3G) (B3U)
                 (B1U) (B2U) (B3G) (B1U) (B2G) (B1G) (AG) (B2U)
                 (AU) (B3G) (B1U) (B3U) (AG) (B2U) (B2G) (AU) (B1U)
                 (AG) (B3G) (B2U) (B3G) (AG) (B1U) (AG) (B2U) (B1U)
                 (B2G) (AU) (B3G) (B1U) (B3G) (B2G) (AU) (B2U)
                 (AG) (B1U) (B3G) (AG) (B2U) (AG) (B1U) (B3G) (B2U)
                 (B3G) (B1U) (AG) (B1U) (B3G) (B1U) (B2U) (B3G)
                 (AG) (B1U) (B3G) (B2U) (B1U) (B3G) (AG) (B2U)
                 (AG) (B1U) (B3G) (B1U) (B1U) (B3G)
 The electronic state is 1-AG.
 Alpha  occ. eigenvalues --  -11.25407 -11.25401 -11.25329 -11.25329 -11.25326
 Alpha  occ. eigenvalues --  -11.25315 -11.25244 -11.25244 -11.24731 -11.24730
 Alpha  occ. eigenvalues --  -11.24687 -11.24687 -11.24684 -11.24683 -11.24681
 Alpha  occ. eigenvalues --  -11.24681 -11.24642 -11.24642 -11.24542 -11.24542
 Alpha  occ. eigenvalues --  -11.24494 -11.24494  -1.19266  -1.17432  -1.14496
 Alpha  occ. eigenvalues --   -1.10511  -1.07498  -1.05568  -1.05567  -1.02576
 Alpha  occ. eigenvalues --   -1.00399  -0.98602  -0.93855  -0.90870  -0.84925
 Alpha  occ. eigenvalues --   -0.84594  -0.81831  -0.80640  -0.80437  -0.78600
 Alpha  occ. eigenvalues --   -0.71649  -0.70596  -0.70277  -0.66761  -0.65876
 Alpha  occ. eigenvalues --   -0.65041  -0.62941  -0.62466  -0.61824  -0.60354
 Alpha  occ. eigenvalues --   -0.59048  -0.58348  -0.57429  -0.57135  -0.56467
 Alpha  occ. eigenvalues --   -0.56006  -0.55292  -0.53015  -0.52832  -0.51036
 Alpha  occ. eigenvalues --   -0.49788  -0.48892  -0.48336  -0.47635  -0.46649
 Alpha  occ. eigenvalues --   -0.43531  -0.42096  -0.39343  -0.36957  -0.34952
 Alpha  occ. eigenvalues --   -0.29889  -0.29046  -0.22052
 Alpha virt. eigenvalues --    0.01443   0.09085   0.09736   0.15122   0.17615
 Alpha virt. eigenvalues --    0.18132   0.18412   0.18659   0.18683   0.19313
 Alpha virt. eigenvalues --    0.19639   0.20328   0.21800   0.22062   0.23617
 Alpha virt. eigenvalues --    0.24196   0.25376   0.25968   0.26206   0.27814
 Alpha virt. eigenvalues --    0.29607   0.32717   0.33960   0.34573   0.39008
 Alpha virt. eigenvalues --    0.39787   0.40382   0.41267   0.41700   0.43302
 Alpha virt. eigenvalues --    0.43588   0.44864   0.46313   0.46848   0.47059
 Alpha virt. eigenvalues --    0.48741   0.49257   0.50299   0.51817   0.52886
 Alpha virt. eigenvalues --    0.53271   0.59524   0.59630   0.62404   0.63104
 Alpha virt. eigenvalues --    0.64093   0.64147   0.64838   0.65559   0.66095
 Alpha virt. eigenvalues --    0.66667   0.66672   0.67227   0.68340   0.68465
 Alpha virt. eigenvalues --    0.68828   0.69709   0.70406   0.70984   0.70991
 Alpha virt. eigenvalues --    0.71022   0.71433   0.72418   0.73099   0.73176
 Alpha virt. eigenvalues --    0.73433   0.73527   0.73915   0.74310   0.74426
 Alpha virt. eigenvalues --    0.74569   0.76068   0.76245   0.76956   0.77435
 Alpha virt. eigenvalues --    0.77614   0.77830   0.78067   0.78142   0.78941
 Alpha virt. eigenvalues --    0.81064   0.81980   0.82881   0.83529   0.86009
 Alpha virt. eigenvalues --    0.86201   0.86330   0.88103   0.88170   0.88384
 Alpha virt. eigenvalues --    0.89758   0.90354   0.90658   0.91337   0.91380
 Alpha virt. eigenvalues --    0.91835   0.92931   0.93639   0.94201   0.95739
 Alpha virt. eigenvalues --    0.96428   0.97461   0.98085   0.99740   1.01295
 Alpha virt. eigenvalues --    1.01670   1.03679   1.05169   1.07991   1.08388
 Alpha virt. eigenvalues --    1.08440   1.10069   1.10272   1.10311   1.11036
 Alpha virt. eigenvalues --    1.11588   1.12686   1.13633   1.13719   1.13987
 Alpha virt. eigenvalues --    1.14877   1.15151   1.16329   1.16795   1.18097
 Alpha virt. eigenvalues --    1.18191   1.18992   1.20489   1.20712   1.20722
 Alpha virt. eigenvalues --    1.20925   1.21391   1.21737   1.21817   1.22997
 Alpha virt. eigenvalues --    1.24461   1.25946   1.26079   1.26761   1.28882
 Alpha virt. eigenvalues --    1.29063   1.29368   1.30017   1.30299   1.31744
 Alpha virt. eigenvalues --    1.32738   1.32868   1.33601   1.34290   1.34596
 Alpha virt. eigenvalues --    1.35323   1.36971   1.40044   1.44327   1.46917
 Alpha virt. eigenvalues --    1.50468   1.53259   1.53362   1.55256   1.58416
 Alpha virt. eigenvalues --    1.61048   1.61910   1.62227   1.65107   1.65830
 Alpha virt. eigenvalues --    1.65905   1.66295   1.66403   1.66720   1.68373
 Alpha virt. eigenvalues --    1.68784   1.69286   1.70091   1.71190   1.71829
 Alpha virt. eigenvalues --    1.73457   1.74108   1.74325   1.74620   1.74717
 Alpha virt. eigenvalues --    1.75295   1.77489   1.78530   1.79478   1.80901
 Alpha virt. eigenvalues --    1.83200   1.83510   1.84108   1.86024   1.86202
 Alpha virt. eigenvalues --    1.86342   1.88299   1.89149   1.89862   1.90522
 Alpha virt. eigenvalues --    1.90675   1.90851   1.90964   1.92687   1.92720
 Alpha virt. eigenvalues --    1.94055   1.94698   1.95124   1.95662   1.96347
 Alpha virt. eigenvalues --    1.96873   1.97211   1.98662   1.99603   1.99860
 Alpha virt. eigenvalues --    2.00017   2.00419   2.01316   2.01357   2.02607
 Alpha virt. eigenvalues --    2.04124   2.04970   2.06567   2.07030   2.07092
 Alpha virt. eigenvalues --    2.07952   2.08643   2.10165   2.10335   2.10685
 Alpha virt. eigenvalues --    2.10738   2.13250   2.13759   2.14544   2.16177
 Alpha virt. eigenvalues --    2.16904   2.17360   2.17473   2.17487   2.18170
 Alpha virt. eigenvalues --    2.18539   2.18937   2.20596   2.24583   2.25655
 Alpha virt. eigenvalues --    2.26197   2.26549   2.29120   2.29823   2.31410
 Alpha virt. eigenvalues --    2.31460   2.31488   2.31720   2.32669   2.32939
 Alpha virt. eigenvalues --    2.34022   2.34521   2.36284   2.43764   2.44130
 Alpha virt. eigenvalues --    2.47046   2.48407   2.48499   2.49706   2.51781
 Alpha virt. eigenvalues --    2.53148   2.53271   2.55177   2.55462   2.55777
 Alpha virt. eigenvalues --    2.57138   2.58018   2.58451   2.60147   2.64890
 Alpha virt. eigenvalues --    2.66696   2.67720   2.68341   2.71475   2.71506
 Alpha virt. eigenvalues --    2.76532   2.76547   2.77325   2.77488   2.84356
 Alpha virt. eigenvalues --    2.89882   2.90139   2.92748   2.93549   2.95996
 Alpha virt. eigenvalues --    2.97566   3.00863   3.03052   3.05217   3.05428
 Alpha virt. eigenvalues --    3.07398   3.08117   3.12602   3.14527   3.18255
 Alpha virt. eigenvalues --    3.20287   3.23483   3.25303   3.29307   3.30673
 Alpha virt. eigenvalues --    3.57385   3.71717   3.83036   3.90444   3.90824
          Condensed to atoms (all electrons):
 Mulliken charges:
               1
     1  C   -0.020737
     2  C   -0.020737
     3  C    0.028426
     4  C   -0.096900
     5  C    0.072803
     6  C   -0.083342
     7  C    0.071089
     8  C   -0.083342
     9  C    0.072803
    10  C   -0.096900
    11  C    0.028426
    12  C   -0.020737
    13  C   -0.020737
    14  C    0.028426
    15  C   -0.096900
    16  C    0.072803
    17  C   -0.083342
    18  C    0.071089
    19  C   -0.083342
    20  C    0.072803
    21  C   -0.096900
    22  C    0.028426
    23  H    0.031439
    24  H    0.031439
    25  H    0.017687
    26  H    0.010465
    27  H    0.009231
    28  H    0.010465
    29  H    0.017687
    30  H    0.031439
    31  H    0.031439
    32  H    0.017687
    33  H    0.010465
    34  H    0.009231
    35  H    0.010465
    36  H    0.017687
 Sum of Mulliken charges =  -0.00000
 Mulliken charges with hydrogens summed into heavy atoms:
               1
     1  C    0.010702
     2  C    0.010702
     3  C    0.046112
     4  C   -0.096900
     5  C    0.083268
     6  C   -0.083342
     7  C    0.080320
     8  C   -0.083342
     9  C    0.083268
    10  C   -0.096900
    11  C    0.046112
    12  C    0.010702
    13  C    0.010702
    14  C    0.046112
    15  C   -0.096900
    16  C    0.083268
    17  C   -0.083342
    18  C    0.080320
    19  C   -0.083342
    20  C    0.083268
    21  C   -0.096900
    22  C    0.046112
 Electronic spatial extent (au):  <R**2>=           9352.7100
 Charge=              0.0000 electrons
 Dipole moment (field-independent basis, Debye):
    X=             -0.0000    Y=              0.0000    Z=              0.0000  Tot=              0.0000
 Unable to Open any file for archive entry.
 1\1\GINC-GPU\SP\RCCSD(T)-FC\CC-pVDZ\C22H14\XUHJ\11-Feb-2025\0\\#T CCSD
 (T)/cc-pVDZ symm=veryloose\\c1ccc2cc3cc4cc5ccccc5cc4cc3cc2c1\\0,1\C,0,
 0.,6.125098,0.71716\C,0,0.,6.125098,-0.71716\C,0,0.,4.946161,-1.41183\
 C,0,0.,3.682542,-0.728089\C,0,0.,2.469762,-1.409278\C,0,0.,1.227753,-0
 .728974\C,0,0.,0.,-1.409919\C,0,0.,-1.227753,-0.728974\C,0,0.,-2.46976
 2,-1.409278\C,0,0.,-3.682542,-0.728089\C,0,0.,-4.946161,-1.41183\C,0,0
 .,-6.125098,-0.71716\C,0,0.,-6.125098,0.71716\C,0,0.,-4.946161,1.41183
 \C,0,0.,-3.682542,0.728089\C,0,0.,-2.469762,1.409278\C,0,0.,-1.227753,
 0.728974\C,0,0.,0.,1.409919\C,0,0.,1.227753,0.728974\C,0,0.,2.469762,1
 .409278\C,0,0.,3.682542,0.728089\C,0,0.,4.946161,1.41183\H,0,0.,7.0790
 66,1.252689\H,0,0.,7.079066,-1.252689\H,0,0.,4.94393,-2.50624\H,0,0.,2
 .47,-2.503902\H,0,0.,0.,-2.504421\H,0,0.,-2.47,-2.503902\H,0,0.,-4.943
 93,-2.50624\H,0,0.,-7.079066,-1.252689\H,0,0.,-7.079066,1.252689\H,0,0
 .,-4.94393,2.50624\H,0,0.,-2.47,2.503902\H,0,0.,0.,2.504421\H,0,0.,2.4
 7,2.503902\H,0,0.,4.94393,2.50624\\Version=ES64L-G16RevC.01\State=1-AG
 \HF=-841.3314947\MP2=-844.1823549\MP3=-844.2438022\MP4D=-844.3246656\M
 P4DQ=-844.2289266\MP4SDQ=-844.2537298\CCSD=-844.257583\CCSD(T)=-844.40
 77139\RMSD=7.539e-09\PG=D02H [C2"(H1C1.C1H1),SG(C20H12)]\\@
 The archive entry for this job was punched.


 ABSOLUTISM, OBSOLETISM -- IF IT WORKS, IT'S OUT OF DATE

                          -- STAFFORD BEER
 Job cpu time:       1 days 17 hours 42 minutes 44.6 seconds.
 Elapsed time:       0 days  2 hours 36 minutes 58.3 seconds.
 File lengths (MBytes):  RWF=  17141 Int=      0 D2E=      0 Chk=     10 Scr=      1
 Normal termination of Gaussian 16 at Tue Feb 11 17:45:32 2025.
 Initial command:
 /opt/g16/l1.exe "/tmp/Gau-378298.inp" -scrdir="/tmp/"
 Entering Link 1 = /opt/g16/l1.exe PID=    381316.
  
 Copyright (c) 1988-2019, Gaussian, Inc.  All Rights Reserved.
  
 This is part of the Gaussian(R) 16 program.  It is based on
 the Gaussian(R) 09 system (copyright 2009, Gaussian, Inc.),
 the Gaussian(R) 03 system (copyright 2003, Gaussian, Inc.),
 the Gaussian(R) 98 system (copyright 1998, Gaussian, Inc.),
 the Gaussian(R) 94 system (copyright 1995, Gaussian, Inc.),
 the Gaussian 92(TM) system (copyright 1992, Gaussian, Inc.),
 the Gaussian 90(TM) system (copyright 1990, Gaussian, Inc.),
 the Gaussian 88(TM) system (copyright 1988, Gaussian, Inc.),
 the Gaussian 86(TM) system (copyright 1986, Carnegie Mellon
 University), and the Gaussian 82(TM) system (copyright 1983,
 Carnegie Mellon University). Gaussian is a federally registered
 trademark of Gaussian, Inc.
  
 This software contains proprietary and confidential information,
 including trade secrets, belonging to Gaussian, Inc.
  
 This software is provided under written license and may be
 used, copied, transmitted, or stored only in accord with that
 written license.
  
 The following legend is applicable only to US Government
 contracts under FAR:
  
                    RESTRICTED RIGHTS LEGEND
  
 Use, reproduction and disclosure by the US Government is
 subject to restrictions as set forth in subparagraphs (a)
 and (c) of the Commercial Computer Software - Restricted
 Rights clause in FAR 52.227-19.
  
 Gaussian, Inc.
 340 Quinnipiac St., Bldg. 40, Wallingford CT 06492
  
  
 ---------------------------------------------------------------
 Warning -- This program may not be used in any manner that
 competes with the business of Gaussian, Inc. or will provide
 assistance to any competitor of Gaussian, Inc.  The licensee
 of this program is prohibited from giving any competitor of
 Gaussian, Inc. access to this program.  By using this program,
 the user acknowledges that Gaussian, Inc. is engaged in the
 business of creating and licensing software in the field of
 computational chemistry and represents and warrants to the
 licensee that it is not a competitor of Gaussian, Inc. and that
 it will not use this program in any manner prohibited above.
 ---------------------------------------------------------------
  

 Cite this work as:
 Gaussian 16, Revision C.01,
 M. J. Frisch, G. W. Trucks, H. B. Schlegel, G. E. Scuseria, 
 M. A. Robb, J. R. Cheeseman, G. Scalmani, V. Barone, 
 G. A. Petersson, H. Nakatsuji, X. Li, M. Caricato, A. V. Marenich, 
 J. Bloino, B. G. Janesko, R. Gomperts, B. Mennucci, H. P. Hratchian, 
 J. V. Ortiz, A. F. Izmaylov, J. L. Sonnenberg, D. Williams-Young, 
 F. Ding, F. Lipparini, F. Egidi, J. Goings, B. Peng, A. Petrone, 
 T. Henderson, D. Ranasinghe, V. G. Zakrzewski, J. Gao, N. Rega, 
 G. Zheng, W. Liang, M. Hada, M. Ehara, K. Toyota, R. Fukuda, 
 J. Hasegawa, M. Ishida, T. Nakajima, Y. Honda, O. Kitao, H. Nakai, 
 T. Vreven, K. Throssell, J. A. Montgomery, Jr., J. E. Peralta, 
 F. Ogliaro, M. J. Bearpark, J. J. Heyd, E. N. Brothers, K. N. Kudin, 
 V. N. Staroverov, T. A. Keith, R. Kobayashi, J. Normand, 
 K. Raghavachari, A. P. Rendell, J. C. Burant, S. S. Iyengar, 
 J. Tomasi, M. Cossi, J. M. Millam, M. Klene, C. Adamo, R. Cammi, 
 J. W. Ochterski, R. L. Martin, K. Morokuma, O. Farkas, 
 J. B. Foresman, and D. J. Fox, Gaussian, Inc., Wallingford CT, 2019.
 
 ******************************************
 Gaussian 16:  ES64L-G16RevC.01  3-Jul-2019
                11-Feb-2025 
 ******************************************
 %nprocshared=16
 Will use up to   16 processors via shared memory.
 %mem=70400MB
 %chk=SLIUAWYAILUBJU-UHFFFAOYSA-N-1.chk
 -----------------------------------------------
 #T CCSD(T)/cc-pVTZ symm=veryloose geom=allcheck
 -----------------------------------------------
 Structure from the checkpoint file:  "SLIUAWYAILUBJU-UHFFFAOYSA-N-1.chk"
 --------------------------------
 c1ccc2cc3cc4cc5ccccc5cc4cc3cc2c1
 --------------------------------
 Charge =  0 Multiplicity = 1
 Z-Matrix found in chk file.
 C,0,0.,6.125098,0.71716
 C,0,0.,6.125098,-0.71716
 C,0,0.,4.946161,-1.41183
 C,0,0.,3.682542,-0.728089
 C,0,0.,2.469762,-1.409278
 C,0,0.,1.227753,-0.728974
 C,0,0.,0.,-1.409919
 C,0,0.,-1.227753,-0.728974
 C,0,0.,-2.469762,-1.409278
 C,0,0.,-3.682542,-0.728089
 C,0,0.,-4.946161,-1.41183
 C,0,0.,-6.125098,-0.71716
 C,0,0.,-6.125098,0.71716
 C,0,0.,-4.946161,1.41183
 C,0,0.,-3.682542,0.728089
 C,0,0.,-2.469762,1.409278
 C,0,0.,-1.227753,0.728974
 C,0,0.,0.,1.409919
 C,0,0.,1.227753,0.728974
 C,0,0.,2.469762,1.409278
 C,0,0.,3.682542,0.728089
 C,0,0.,4.946161,1.41183
 H,0,0.,7.079066,1.252689
 H,0,0.,7.079066,-1.252689
 H,0,0.,4.94393,-2.50624
 H,0,0.,2.47,-2.503902
 H,0,0.,0.,-2.504421
 H,0,0.,-2.47,-2.503902
 H,0,0.,-4.94393,-2.50624
 H,0,0.,-7.079066,-1.252689
 H,0,0.,-7.079066,1.252689
 H,0,0.,-4.94393,2.50624
 H,0,0.,-2.47,2.503902
 H,0,0.,0.,2.504421
 H,0,0.,2.47,2.503902
 H,0,0.,4.94393,2.50624
 Recover connectivity data from disk.
                    Distance matrix (angstroms):
                    1          2          3          4          5
     1  C    0.000000
     2  C    1.434320   0.000000
     3  C    2.433617   1.368378   0.000000
     4  C    2.838102   2.442580   1.436744   0.000000
     5  C    4.228856   3.720283   2.476400   1.390990   0.000000
     6  C    5.106397   4.897359   3.780589   2.454789   1.416121
     7  C    6.483926   6.164150   4.946161   3.745131   2.469762
     8  C    7.493712   7.352860   6.211562   4.910295   3.759579
     9  C    8.854002   8.622682   7.415923   6.189900   4.939524
    10  C    9.913554   9.807646   8.655751   7.365084   6.189900
    11  C   11.274102  11.093031   9.892322   8.655751   7.415923
    12  C   12.333879  12.250196  11.093031   9.807646   8.622682
    13  C   12.250196  12.333879  11.274102   9.913554   8.854002
    14  C   11.093031  11.274102  10.287424   8.890094   7.934391
    15  C    9.807646   9.913554   8.890094   7.507657   6.513001
    16  C    8.622682   8.854002   7.934391   6.513001   5.687104
    17  C    7.352860   7.493712   6.534543   5.121917   4.271269
    18  C    6.164150   6.483926   5.694451   4.258191   3.748012
    19  C    4.897359   5.106397   4.290641   2.854649   2.472794
    20  C    3.720283   4.228856   3.753825   2.457473   2.818556
    21  C    2.442580   2.838102   2.485153   1.456178   2.457473
    22  C    1.368378   2.433617   2.823660   2.485153   3.753825
    23  H    1.094005   2.188689   3.413055   3.931902   5.322758
    24  H    2.188689   1.094005   2.138834   3.436798   4.611963
    25  H    3.432997   2.143820   1.094412   2.180119   2.706443
    26  H    4.871856   4.068438   2.706288   2.150295   1.094624
    27  H    6.920651   6.380527   5.065399   4.088578   2.701678
    28  H    9.178832   8.778847   7.496137   6.403693   5.059590
    29  H   11.528820  11.212680   9.950459   8.807828   7.494408
    30  H   13.350290  13.215019  12.026280  10.774387   9.550112
    31  H   13.215019  13.350290  12.316889  10.942380   9.912930
    32  H   11.212680  11.528820  10.637912   9.212866   8.384158
    33  H    8.778847   9.178832   8.386442   6.949787   6.301922
    34  H    6.380527   6.920651   6.308845   4.900024   4.627825
    35  H    4.068438   4.871856   4.632961   3.451959   3.913180
    36  H    2.143820   3.432997   3.918071   3.471597   4.631716
                    6          7          8          9         10
     6  C    0.000000
     7  C    1.403946   0.000000
     8  C    2.455506   1.403946   0.000000
     9  C    3.759579   2.469762   1.416121   0.000000
    10  C    4.910295   3.745131   2.454789   1.390990   0.000000
    11  C    6.211562   4.946161   3.780589   2.476400   1.436744
    12  C    7.352860   6.164150   4.897359   3.720283   2.442580
    13  C    7.493712   6.483926   5.106397   4.228856   2.838102
    14  C    6.534543   5.694451   4.290641   3.753825   2.485153
    15  C    5.121917   4.258191   2.854649   2.457473   1.456178
    16  C    4.271269   3.748012   2.472794   2.818556   2.457473
    17  C    2.855717   2.466220   1.457948   2.472794   2.854649
    18  C    2.466220   2.819838   2.466220   3.748012   4.258191
    19  C    1.457948   2.466220   2.855717   4.271269   5.121917
    20  C    2.472794   3.748012   4.271269   5.687104   6.513001
    21  C    2.854649   4.258191   5.121917   6.513001   7.507657
    22  C    4.290641   5.694451   6.534543   7.934391   8.890094
    23  H    6.177771   7.563244   8.539920   9.912930  10.942380
    24  H    5.874704   7.080812   8.323312   9.550112  10.774387
    25  H    4.119302   5.064026   6.422487   7.494408   8.807828
    26  H    2.166460   2.701425   4.101676   5.059590   6.403693
    27  H    2.158608   1.094502   2.158608   2.701678   4.088578
    28  H    4.101676   2.701425   2.166460   1.094624   2.150295
    29  H    6.422487   5.064026   4.119302   2.706443   2.180119
    30  H    8.323312   7.080812   5.874704   4.611963   3.436798
    31  H    8.539920   7.563244   6.177771   5.322758   3.931902
    32  H    6.968234   6.307039   4.927127   4.631716   3.471597
    33  H    4.911707   4.628055   3.463331   3.913180   3.451959
    34  H    3.458644   3.914340   3.458644   4.627825   4.900024
    35  H    3.463331   4.628055   4.911707   6.301922   6.949787
    36  H    4.927127   6.307039   6.968234   8.384158   9.212866
                   11         12         13         14         15
    11  C    0.000000
    12  C    1.368378   0.000000
    13  C    2.433617   1.434320   0.000000
    14  C    2.823660   2.433617   1.368378   0.000000
    15  C    2.485153   2.838102   2.442580   1.436744   0.000000
    16  C    3.753825   4.228856   3.720283   2.476400   1.390990
    17  C    4.290641   5.106397   4.897359   3.780589   2.454789
    18  C    5.694451   6.483926   6.164150   4.946161   3.745131
    19  C    6.534543   7.493712   7.352860   6.211562   4.910295
    20  C    7.934391   8.854002   8.622682   7.415923   6.189900
    21  C    8.890094   9.913554   9.807646   8.655751   7.365084
    22  C   10.287424  11.274102  11.093031   9.892322   8.655751
    23  H   12.316889  13.350290  13.215019  12.026280  10.774387
    24  H   12.026280  13.215019  13.350290  12.316889  10.942380
    25  H    9.950459  11.212680  11.528820  10.637912   9.212866
    26  H    7.496137   8.778847   9.178832   8.386442   6.949787
    27  H    5.065399   6.380527   6.920651   6.308845   4.900024
    28  H    2.706288   4.068438   4.871856   4.632961   3.451959
    29  H    1.094412   2.143820   3.432997   3.918071   3.471597
    30  H    2.138834   1.094005   2.188689   3.413055   3.931902
    31  H    3.413055   2.188689   1.094005   2.138834   3.436798
    32  H    3.918071   3.432997   2.143820   1.094412   2.180119
    33  H    4.632961   4.871856   4.068438   2.706288   2.150295
    34  H    6.308845   6.920651   6.380527   5.065399   4.088578
    35  H    8.386442   9.178832   8.778847   7.496137   6.403693
    36  H   10.637912  11.528820  11.212680   9.950459   8.807828
                   16         17         18         19         20
    16  C    0.000000
    17  C    1.416121   0.000000
    18  C    2.469762   1.403946   0.000000
    19  C    3.759579   2.455506   1.403946   0.000000
    20  C    4.939524   3.759579   2.469762   1.416121   0.000000
    21  C    6.189900   4.910295   3.745131   2.454789   1.390990
    22  C    7.415923   6.211562   4.946161   3.780589   2.476400
    23  H    9.550112   8.323312   7.080812   5.874704   4.611963
    24  H    9.912930   8.539920   7.563244   6.177771   5.322758
    25  H    8.384158   6.968234   6.307039   4.927127   4.631716
    26  H    6.301922   4.911707   4.628055   3.463331   3.913180
    27  H    4.627825   3.458644   3.914340   3.458644   4.627825
    28  H    3.913180   3.463331   4.628055   4.911707   6.301922
    29  H    4.631716   4.927127   6.307039   6.968234   8.384158
    30  H    5.322758   6.177771   7.563244   8.539920   9.912930
    31  H    4.611963   5.874704   7.080812   8.323312   9.550112
    32  H    2.706443   4.119302   5.064026   6.422487   7.494408
    33  H    1.094624   2.166460   2.701425   4.101676   5.059590
    34  H    2.701678   2.158608   1.094502   2.158608   2.701678
    35  H    5.059590   4.101676   2.701425   2.166460   1.094624
    36  H    7.494408   6.422487   5.064026   4.119302   2.706443
                   21         22         23         24         25
    21  C    0.000000
    22  C    1.436744   0.000000
    23  H    3.436798   2.138834   0.000000
    24  H    3.931902   3.413055   2.505378   0.000000
    25  H    3.471597   3.918071   4.323003   2.475923   0.000000
    26  H    3.451959   4.632961   5.946046   4.775879   2.473931
    27  H    4.900024   6.308845   8.014303   7.188881   4.943930
    28  H    6.949787   8.386442  10.261415   9.630690   7.413930
    29  H    9.212866  10.637912  12.596904  12.088169   9.887860
    30  H   10.942380  12.316889  14.378095  14.158132  12.088169
    31  H   10.774387  12.026280  14.158132  14.378095  12.596904
    32  H    8.807828   9.950459  12.088169  12.596904  11.085790
    33  H    6.403693   7.496137   9.630690  10.261415   8.948066
    34  H    4.088578   5.065399   7.188881   8.014303   7.039117
    35  H    2.150295   2.706288   4.775879   5.946046   5.587652
    36  H    2.180119   1.094412   2.475923   4.323003   5.012480
                   26         27         28         29         30
    26  H    0.000000
    27  H    2.470000   0.000000
    28  H    4.940000   2.470000   0.000000
    29  H    7.413930   4.943930   2.473931   0.000000
    30  H    9.630690   7.188881   4.775879   2.475923   0.000000
    31  H   10.261415   8.014303   5.946046   4.323003   2.505378
    32  H    8.948066   7.039117   5.587652   5.012480   4.323003
    33  H    7.034323   5.584281   5.007804   5.587652   5.946046
    34  H    5.584281   5.008842   5.584281   7.039117   8.014303
    35  H    5.007804   5.584281   7.034323   8.948066  10.261415
    36  H    5.587652   7.039117   8.948066  11.085790  12.596904
                   31         32         33         34         35
    31  H    0.000000
    32  H    2.475923   0.000000
    33  H    4.775879   2.473931   0.000000
    34  H    7.188881   4.943930   2.470000   0.000000
    35  H    9.630690   7.413930   4.940000   2.470000   0.000000
    36  H   12.088169   9.887860   7.413930   4.943930   2.473931
                   36
    36  H    0.000000
 Framework group  D2H[C2"(HC.CH),SG(C20H12)]
 Deg. of freedom    18
                         Standard orientation:                         
 ---------------------------------------------------------------------
 Center     Atomic      Atomic             Coordinates (Angstroms)
 Number     Number       Type             X           Y           Z
 ---------------------------------------------------------------------
      1          6           0        0.000000    6.125098    0.717160
      2          6           0        0.000000    6.125098   -0.717160
      3          6           0       -0.000000    4.946161   -1.411830
      4          6           0       -0.000000    3.682542   -0.728089
      5          6           0       -0.000000    2.469762   -1.409278
      6          6           0       -0.000000    1.227753   -0.728974
      7          6           0       -0.000000    0.000000   -1.409919
      8          6           0       -0.000000   -1.227753   -0.728974
      9          6           0       -0.000000   -2.469762   -1.409278
     10          6           0       -0.000000   -3.682542   -0.728089
     11          6           0       -0.000000   -4.946161   -1.411830
     12          6           0       -0.000000   -6.125098   -0.717160
     13          6           0       -0.000000   -6.125098    0.717160
     14          6           0       -0.000000   -4.946161    1.411830
     15          6           0       -0.000000   -3.682542    0.728089
     16          6           0       -0.000000   -2.469762    1.409278
     17          6           0       -0.000000   -1.227753    0.728974
     18          6           0       -0.000000   -0.000000    1.409919
     19          6           0       -0.000000    1.227753    0.728974
     20          6           0       -0.000000    2.469762    1.409278
     21          6           0       -0.000000    3.682542    0.728089
     22          6           0       -0.000000    4.946161    1.411830
     23          1           0        0.000000    7.079066    1.252689
     24          1           0        0.000000    7.079066   -1.252689
     25          1           0       -0.000000    4.943930   -2.506240
     26          1           0       -0.000000    2.470000   -2.503902
     27          1           0       -0.000000    0.000000   -2.504421
     28          1           0       -0.000000   -2.470000   -2.503902
     29          1           0       -0.000000   -4.943930   -2.506240
     30          1           0       -0.000000   -7.079066   -1.252689
     31          1           0       -0.000000   -7.079066    1.252689
     32          1           0       -0.000000   -4.943930    2.506240
     33          1           0       -0.000000   -2.470000    2.503902
     34          1           0       -0.000000   -0.000000    2.504421
     35          1           0       -0.000000    2.470000    2.503902
     36          1           0       -0.000000    4.943930    2.506240
 ---------------------------------------------------------------------
 Rotational constants (GHZ):           1.3163616           0.1170854           0.1075217
   856 basis functions,  1382 primitive gaussians,   980 cartesian basis functions
    73 alpha electrons       73 beta electrons
       nuclear repulsion energy      1489.8866921846 Hartrees.
 NAtoms=   36 NActive=   36 NUniq=   10 SFac= 4.00D+00 NAtFMM=   60 NAOKFM=F Big=F
 ExpMin= 1.03D-01 ExpMax= 8.24D+03 ExpMxC= 2.81D+02 IAcc=3 IRadAn=         5 AccDes= 0.00D+00
 Harris functional with IExCor=  205 and IRadAn=       5 diagonalized for initial guess.
 HarFok:  IExCor=  205 AccDes= 0.00D+00 IRadAn=         5 IDoV= 1 UseB2=F ITyADJ=14
 ICtDFT=  3500011 ScaDFX=  1.000000  1.000000  1.000000  1.000000
 FoFCou: FMM=F IPFlag=           0 FMFlag=      100000 FMFlg1=           0
         NFxFlg=           0 DoJE=T BraDBF=F KetDBF=T FulRan=T
         wScrn=  0.000000 ICntrl=       500 IOpCl=  0 I1Cent=   200000004 NGrid=           0
         NMat0=    1 NMatS0=      1 NMatT0=    0 NMatD0=    1 NMtDS0=    0 NMtDT0=    0
 Petite list used in FoFCou.
 Initial guess orbital symmetries:
       Occupied  (B2U) (AG) (B3G) (B1U) (B2U) (AG) (B1U) (B3G)
                 (B1U) (B3G) (B2U) (AG) (B1U) (AG) (B2U) (AG) (B3G)
                 (B1U) (B2U) (AG) (B1U) (B3G) (AG) (B2U) (AG) (B2U)
                 (B1U) (AG) (B3G) (B1U) (B2U) (B3G) (B1U) (AG)
                 (B3G) (B2U) (AG) (B2U) (AG) (B1U) (AG) (B2U) (B3G)
                 (B2U) (AG) (B1U) (B2U) (AG) (B1U) (B3G) (B2U)
                 (B1U) (B3G) (AG) (B3G) (B1U) (B3U) (B2U) (B1G)
                 (B1U) (B3G) (B3U) (AG) (B2U) (AG) (B1G) (B2G)
                 (AU) (B3U) (B2G) (B1G) (AU) (B2G)
       Virtual   (B3U) (B1G) (AU) (B3U) (B2G) (B1G) (B3U) (AU)
                 (B1U) (B2G) (AG) (B2U) (AG) (B3G) (B2U) (AU) (B1U)
                 (AG) (B3G) (B2G) (B2U) (B3G) (B1U) (AG) (AG) (B1U)
                 (B3G) (B1U) (B3G) (B2U) (B1U) (B3G) (B1U) (B2U)
                 (AG) (B2U) (B2U) (AG) (AG) (AG) (B3U) (B2U) (AG)
                 (B2U) (B1G) (B1U) (B2U) (B2G) (B3U) (B3G) (AU)
                 (AG) (B1U) (B1G) (AG) (B3G) (B2U) (B2G) (B3G)
                 (B1U) (AG) (B3G) (B1U) (B3U) (B3U) (B1G) (B2U)
                 (B1U) (AG) (AU) (B2U) (B1G) (B3G) (B3U) (B1U)
                 (AG) (B2U) (B3G) (B2G) (B3U) (AG) (B3G) (B1U)
                 (B1G) (B1U) (AG) (AU) (B3G) (B2U) (B1U) (AG) (B3U)
                 (B2U) (B1U) (AG) (B1U) (B2G) (B3G) (B1G) (B3G)
                 (B2U) (B2G) (B3G) (AG) (B1U) (AU) (B3U) (B3G)
                 (B1U) (AU) (B2U) (AG) (B2G) (B2U) (B1G) (B1G)
                 (AG) (B3G) (B1U) (B3G) (B3U) (AG) (B2U) (B3U)
                 (B1U) (B1U) (AU) (B2G) (B2G) (B1G) (B3G) (AG)
                 (B2U) (B1U) (B3G) (AU) (B1G) (B1U) (B3U) (B2U)
                 (B2U) (AG) (AG) (B2G) (B3G) (B3U) (B1G) (AG) (B2U)
                 (B1U) (B1U) (B2U) (AG) (B3G) (AU) (B1U) (AG) (B3U)
                 (B3G) (B2U) (B2U) (AG) (AG) (B2U) (B3U) (B1G)
                 (B2G) (B3G) (B1U) (AG) (B3G) (B3U) (B1G) (AU)
                 (B2U) (B1U) (B2U) (B2G) (B1G) (B3G) (AG) (B1U)
                 (B1U) (AU) (AU) (B3G) (B3G) (B3U) (B2G) (B2U)
                 (B1U) (AG) (B2G) (AU) (AG) (B3U) (B1U) (B2U) (B3G)
                 (AG) (B2G) (B3G) (B1U) (AU) (AG) (B3G) (B2U) (B2G)
                 (B1G) (B2U) (AG) (B1U) (B1G) (B3G) (AG) (B1U)
                 (B2G) (B1U) (B2U) (B3G) (B1U) (B2U) (B3U) (B3U)
                 (AU) (AG) (B2U) (B1G) (B3G) (AG) (B2U) (B1G) (B1U)
                 (B3G) (AU) (B2U) (B2G) (B1U) (AG) (B3G) (B3U)
                 (B1U) (AG) (B2U) (B1U) (AG) (B3G) (B2U) (B1G)
                 (B3G) (AG) (B2G) (B3G) (B1U) (B2U) (AG) (AU) (B3U)
                 (B2U) (B1U) (B2U) (AG) (B1U) (B2G) (B3G) (B3G)
                 (B1U) (AG) (AU) (B2U) (B2G) (AG) (B3G) (AU) (B2U)
                 (B1U) (AG) (B3G) (B1U) (B3G) (B2U) (B1U) (B3G)
                 (AG) (B2G) (B1U) (AU) (B3U) (B1G) (B3G) (B2U)
                 (B1U) (B3U) (AG) (B1U) (B3G) (AG) (B1G) (B3U)
                 (B3G) (B1U) (B2U) (B2G) (AU) (AG) (AU) (B2G) (B1G)
                 (B2U) (B1U) (B2G) (B3G) (AU) (B3U) (B3U) (B1G)
                 (B3G) (B1U) (AG) (B1G) (B2U) (B1U) (B3G) (B3U)
                 (B3U) (B2U) (AG) (B2U) (B1G) (AG) (B3G) (B1U)
                 (B2U) (B3G) (B1G) (AG) (B2U) (B2U) (AG) (B1U)
                 (B3U) (B2G) (AG) (AG) (B2U) (AU) (B2G) (B1U) (B3G)
                 (AU) (B2G) (B1G) (AG) (B1U) (B2U) (B3U) (B1U)
                 (B3G) (B2U) (AG) (AG) (B2U) (B3G) (B1U) (AG) (B2U)
                 (B1G) (B3G) (AG) (AU) (B3U) (B2G) (B1G) (B2G)
                 (B2U) (AG) (AU) (B3U) (B3U) (B1G) (AU) (B2U) (B2G)
                 (B3U) (B1G) (B1U) (B3U) (AG) (B2G) (B2U) (AU)
                 (B3G) (AG) (B1G) (B1U) (B3U) (B2U) (B1G) (B3G)
                 (B1U) (B2G) (AU) (AG) (B1U) (B2U) (B3G) (B1G)
                 (B2G) (B3U) (AG) (AU) (B2U) (B3U) (B1U) (B3G)
                 (AG) (B2G) (B1G) (B1U) (B3U) (B2U) (B3G) (AG)
                 (AU) (AG) (B1U) (B1G) (B3G) (B2U) (B3U) (B3G)
                 (B3U) (B2U) (B1U) (AG) (B1G) (B2U) (B3U) (B1G)
                 (B3G) (B2U) (AG) (B1U) (AG) (B2G) (B3G) (B3U)
                 (B2U) (B1U) (B2G) (AG) (B2U) (AU) (B1U) (B1G)
                 (B3G) (AG) (B3U) (B1G) (B3G) (B2U) (B1U) (AG)
                 (B1U) (B2U) (AG) (B1G) (B3U) (AU) (B2G) (AU) (B3G)
                 (B1U) (B3G) (AG) (B1U) (B2G) (B3G) (AU) (B2G)
                 (AG) (B2U) (B3G) (B1U) (AG) (B1U) (B2G) (AU) (B1G)
                 (B2U) (B3U) (B2U) (B3G) (B1G) (AU) (B3U) (B1U)
                 (B3G) (B2U) (AG) (B2G) (AU) (B2G) (AG) (B1G) (B3U)
                 (B1U) (B2G) (AU) (B3G) (B1U) (B2U) (AU) (B3G)
                 (B2G) (B3U) (B3G) (B1U) (AG) (B1U) (B1G) (AU)
                 (B3G) (B2U) (AU) (B1G) (B2G) (B1U) (AG) (AU) (B1U)
                 (AG) (B2G) (B2G) (B2U) (AG) (B1U) (B3G) (AG) (B2U)
                 (B3G) (B1U) (B3U) (B2U) (B2U) (B3G) (AG) (B1G)
                 (B3U) (B1G) (AG) (B1G) (B3U) (B1U) (B2U) (B3G)
                 (B2G) (AU) (AG) (AG) (B1U) (B3G) (B1G) (B1U) (B2U)
                 (B3U) (AU) (B2G) (B2U) (B1U) (AU) (B3G) (B1G)
                 (B3U) (AG) (B2G) (B1U) (B3G) (B2U) (B1U) (AG)
                 (B2U) (B2G) (AU) (B1U) (B3G) (AG) (AU) (B3G) (B1U)
                 (B3G) (B3U) (B2G) (B1G) (B3U) (AU) (B2G) (B2U)
                 (AG) (B3G) (B1G) (B2U) (B3G) (AG) (B1U) (AU) (B1U)
                 (B3G) (B3U) (B1U) (B2G) (AG) (B2U) (B1G) (B2U)
                 (B3U) (AU) (B2G) (AU) (AG) (B3G) (AG) (B2G) (B2U)
                 (B3U) (AU) (B3G) (B1U) (B2U) (B1G) (B2U) (B1U)
                 (B2U) (AG) (AG) (B1G) (B3G) (B3U) (B2G) (AG) (B2U)
                 (AG) (B1U) (B1G) (B3G) (B3U) (B1U) (B2U) (B3G)
                 (B1U) (B3U) (B1G) (B3G) (AG) (B1U) (AG) (B2G)
                 (B2U) (B3G) (AU) (AU) (AG) (B2G) (B2U) (B1U) (B3G)
                 (AG) (B2G) (AU) (B1U) (B3G) (B3G) (B2U) (AG) (B1G)
                 (B3U) (B2G) (AU) (B1U) (B2U) (B2G) (B1U) (B2U)
                 (AG) (AU) (B1U) (AG) (B2U) (AU) (B2G) (B3G) (B3G)
                 (B2U) (B3U) (B3U) (AG) (B1G) (B2U) (B1G) (B3U)
                 (B1U) (B3G) (AG) (B2U) (B2G) (B2U) (AG) (B1U)
                 (B3G) (AG) (AU) (B1U) (B3G) (B1U) (B2U) (AG) (AG)
                 (B2G) (B2U) (B3G) (B1U) (B2G) (B1U) (AU) (AG)
                 (B3G) (B1U) (B3G) (B3G) (B2U) (B1U) (B2U) (B1U)
                 (B3G) (B1U) (AG) (B3G) (AG) (B2U) (B3G) (B1U)
                 (B1U) (AG) (B2U) (B3G) (B1U) (B3G) (AG) (B2U)
                 (B1U) (B3G) (AG) (B1U) (B2U) (B3G) (B1U) (B3G)
                 (B1U) (B3G) (B1U) (B3G) (AG) (B2U) (AG) (B2U)
                 (AG) (B3G) (B1U) (B3G) (B1U) (B2U) (AG) (B2U)
                 (AG) (B2U) (AG) (B3G) (B1U) (B1U) (B3G) (B1U)
                 (B3G) (B1U)
 The electronic state of the initial guess is 1-AG.
 Integral accuracy reduced to 1.0D-05 until final iterations.
 Problem detected with inexpensive integrals.
 Switching to full accuracy and repeating last cycle.
 SCF Done:  E(RHF) =  -841.522541152     A.U. after   14 cycles
            NFock= 14  Conv=0.43D-08     -V/T= 2.0020
 ExpMin= 1.03D-01 ExpMax= 8.24D+03 ExpMxC= 2.81D+02 IAcc=3 IRadAn=         5 AccDes= 0.00D+00
 HarFok:  IExCor=  205 AccDes= 0.00D+00 IRadAn=         5 IDoV=-2 UseB2=F ITyADJ=14
 ICtDFT= 12500011 ScaDFX=  1.000000  1.000000  1.000000  1.000000
 GSVD:  LWork=        -660 too small for GESVD, short by        2750 words or        2750 for optimal perf.
 NROrb=    834 NOA=    51 NOB=    51 NVA=   783 NVB=   783

 **** Warning!!: The largest alpha MO coefficient is  0.68114073D+02

 Semi-Direct transformation.
 ModeAB=           4 MOrb=            51 LenV=    9211632269
 LASXX=   1820454714 LTotXX=  1820454714 LenRXX=  3648305277
 LTotAB=  1827850563 MaxLAS=  3226544172 LenRXY=           0
 NonZer=  5468759991 LenScr= 10980412416 LnRSAI=  3226544172
 LnScr1=  6478394880 LExtra=           0 Total=  24333656745
 MaxDsk=          -1 SrtSym=           T ITran=            4
 JobTyp=0 Pass  1:  I=   1 to  51.
 (rs|ai) integrals will be sorted in core.
 ANorm=    0.1495824400D+01
 E2 =    -0.3442568688D+01 EUMP2 =    -0.84496510983983D+03
 CIDS: In Core Option IDoMem=           1.
 Produce multiple copies of IABC intergrals
 FoFJK:  IHMeth= 1 ICntrl=     200 DoSepK=F KAlg= 0 I1Cent=           0 FoldK=F
 IRaf= 700000000 NMat=     266 IRICut=     332 DoRegI=T DoRafI=T ISym2E=-1 IDoP0=3 IntGTp=3.
 FoFCou: FMM=F IPFlag=           0 FMFlag=      100000 FMFlg1=           0
         NFxFlg=           0 DoJE=F BraDBF=F KetDBF=F FulRan=T
         wScrn=  0.000000 ICntrl=       200 IOpCl=  0 I1Cent=           0 NGrid=           0
         NMat0=  266 NMatS0=      0 NMatT0=  133 NMatD0=  266 NMtDS0=    0 NMtDT0=    0
 Petite list used in FoFCou.
 Raff kept on since  69.74% of shell-pairs survive, threshold=   0.20 IRatSp=70.
 MP4(R+Q)=  0.13215080D+00
 E3=       -0.28317588D-01        EUMP3=      -0.84499342743D+03
 E4(DQ)=    0.42275923D-01        UMP4(DQ)=   -0.84495115150D+03
 E4(SDQ)=   0.10816894D-01        UMP4(SDQ)=  -0.84498261053D+03
 DE(Corr)=  -3.3380391     E(Corr)=     -844.86058025    
 NORM(A)=   0.14618020D+01
 DE(Corr)=  -3.4598264     E(CORR)=     -844.98236760     Delta=-1.22D-01
 NORM(A)=   0.15010394D+01
 DE(Corr)=  -3.4514863     E(CORR)=     -844.97402749     Delta= 8.34D-03
 NORM(A)=   0.15061806D+01
 DE(Corr)=  -3.4605574     E(CORR)=     -844.98309854     Delta=-9.07D-03
 NORM(A)=   0.15088077D+01
 DE(Corr)=  -3.4617338     E(CORR)=     -844.98427497     Delta=-1.18D-03
 NORM(A)=   0.15099052D+01
 DE(Corr)=  -3.4618926     E(CORR)=     -844.98443371     Delta=-1.59D-04
 NORM(A)=   0.15102600D+01
 DE(Corr)=  -3.4619140     E(CORR)=     -844.98445516     Delta=-2.14D-05
 NORM(A)=   0.15102252D+01
 DE(Corr)=  -3.4619775     E(CORR)=     -844.98451869     Delta=-6.35D-05
 NORM(A)=   0.15103018D+01
 DE(Corr)=  -3.4619248     E(CORR)=     -844.98446596     Delta= 5.27D-05
 NORM(A)=   0.15102907D+01
 DE(Corr)=  -3.4619480     E(CORR)=     -844.98448914     Delta=-2.32D-05
 NORM(A)=   0.15102992D+01
 DE(Corr)=  -3.4619366     E(CORR)=     -844.98447779     Delta= 1.14D-05
 NORM(A)=   0.15103003D+01
 DE(Corr)=  -3.4619389     E(CORR)=     -844.98448008     Delta=-2.29D-06
 NORM(A)=   0.15102997D+01
 DE(Corr)=  -3.4619391     E(CORR)=     -844.98448029     Delta=-2.11D-07
 NORM(A)=   0.15102995D+01
 DE(Corr)=  -3.4619389     E(CORR)=     -844.98448005     Delta= 2.41D-07
 NORM(A)=   0.15102996D+01
 DE(Corr)=  -3.4619387     E(CORR)=     -844.98447987     Delta= 1.75D-07
 NORM(A)=   0.15102992D+01
 DE(Corr)=  -3.4619389     E(CORR)=     -844.98448004     Delta=-1.69D-07
 NORM(A)=   0.15102991D+01
 DE(Corr)=  -3.4619387     E(CORR)=     -844.98447982     Delta= 2.20D-07
 NORM(A)=   0.15102991D+01
 DE(Corr)=  -3.4619388     E(CORR)=     -844.98447994     Delta=-1.16D-07
 NORM(A)=   0.15102990D+01
 DE(Corr)=  -3.4619387     E(CORR)=     -844.98447988     Delta= 6.15D-08
 NORM(A)=   0.15102989D+01
 Wavefunction amplitudes converged. E(Corr)=     -844.98447988    
 Largest amplitude= 6.95D-02
 Time for triples=  4094115.25 seconds.
 T4(CCSD)= -0.21368007D+00
 T5(CCSD)=  0.38378914D-02
 CCSD(T)= -0.84519432205D+03
 Discarding MO integrals.

 **********************************************************************

            Population analysis using the SCF Density.

 **********************************************************************

 Orbital symmetries:
       Occupied  (AG) (B2U) (B2U) (AG) (B1U) (B3G) (B1U) (B3G)
                 (B1U) (AG) (B3G) (B2U) (B1U) (AG) (B2U) (AG) (B3G)
                 (B1U) (B2U) (AG) (B3G) (B1U) (AG) (B2U) (AG) (B2U)
                 (B1U) (AG) (B3G) (B1U) (B2U) (B3G) (B1U) (AG)
                 (B3G) (B2U) (AG) (B2U) (AG) (B1U) (B3G) (AG) (B2U)
                 (AG) (B2U) (B1U) (B1U) (B3G) (B2U) (AG) (B1U)
                 (B3G) (B1U) (AG) (B2U) (B3G) (B3U) (B2U) (B1G)
                 (B1U) (AG) (B3U) (B3G) (B2U) (AG) (B1G) (B2G)
                 (AU) (B3U) (B2G) (B1G) (AU) (B2G)
       Virtual   (B3U) (B1G) (AU) (B1U) (B3U) (AG) (B2U) (B3G)
                 (AG) (B1G) (B2G) (B3U) (B1U) (B2U) (B3G) (AG)
                 (B1U) (B2U) (B3G) (AU) (AG) (B1U) (B3G) (B2G)
                 (B2G) (B2U) (AU) (AG) (B1U) (B2U) (B1U) (AG) (B3G)
                 (B2U) (AG) (AG) (B3U) (B3G) (B1U) (B1G) (B2U)
                 (AG) (B3U) (B2U) (B1U) (AG) (B1G) (AG) (B3G) (B2G)
                 (B2U) (AU) (B1U) (B2U) (B3U) (B3G) (AG) (B3G)
                 (AG) (B2U) (B1U) (AU) (B2G) (B1U) (B1U) (B1G)
                 (B3U) (B3G) (B1G) (B2U) (B3G) (B2G) (B3U) (AG)
                 (B1U) (AG) (B3G) (B2U) (B3U) (B1U) (AG) (B1U)
                 (B2U) (B1G) (AU) (AG) (B2U) (B1U) (AG) (B2U) (B3G)
                 (B2G) (B3G) (B3U) (AG) (B1G) (B1U) (B2G) (B2U)
                 (B3G) (AU) (B1U) (AG) (B3G) (B3U) (AU) (B3G) (AG)
                 (B2U) (B1U) (B2G) (B3G) (B1U) (B1G) (B2U) (AG)
                 (B1G) (AG) (B2U) (B1U) (B3U) (B3U) (B3G) (AU)
                 (B2G) (B2U) (B2G) (B3G) (AG) (B1G) (B1U) (AU)
                 (B1U) (B2U) (B3G) (B2U) (AG) (B1G) (B3U) (B1U)
                 (B1U) (B3G) (B2G) (B1G) (AG) (B3U) (B3G) (AG)
                 (B1U) (B2U) (B1U) (B3G) (AG) (B2U) (B3G) (AG)
                 (B2U) (B3U) (B1U) (AU) (AG) (B2U) (AG) (B3G) (B2U)
                 (B1U) (B3U) (B1G) (B1U) (B2G) (B3G) (B3U) (B3G)
                 (B2U) (B1U) (AG) (B1G) (AU) (B2G) (B3G) (AU) (AG)
                 (B1G) (B1U) (AU) (B2G) (B2U) (B3G) (B2G) (B2U)
                 (AG) (B1U) (B3U) (B3G) (AG) (B1U) (B2U) (AU) (B1U)
                 (B3G) (B2G) (AG) (B2U) (B3U) (AU) (B3G) (AG) (AG)
                 (B2U) (B2G) (B1U) (B1G) (B3G) (AG) (B1U) (B2U)
                 (B2U) (B1U) (B3G) (B1G) (B3U) (B1U) (B2U) (B2G)
                 (B3G) (AG) (B3U) (AU) (AG) (B1U) (B3G) (B1G) (B2U)
                 (B1G) (B3G) (B1U) (B2U) (B1U) (AG) (B3U) (AG)
                 (AU) (B2G) (B2U) (B3G) (B1U) (AG) (B3G) (B1G)
                 (B2U) (B1U) (B3G) (AG) (B2G) (B2U) (B1U) (AU)
                 (B3U) (AG) (B3G) (B2U) (AG) (B1U) (B2G) (B2U)
                 (B1U) (AU) (AG) (B3G) (B2U) (B2G) (B3G) (AG) (B1U)
                 (B3G) (AU) (B1U) (B1U) (B3G) (B2U) (B2G) (B3G)
                 (AG) (B1U) (B2U) (AG) (AU) (B3G) (B1U) (B1U) (B3G)
                 (B2U) (AG) (AG) (B3G) (B3U) (B1G) (B1U) (B3U)
                 (B2U) (B1G) (AG) (B1U) (B3G) (B2U) (B3U) (B2G)
                 (AU) (B2G) (AU) (B3G) (B1U) (B1G) (AG) (B2G) (AU)
                 (B3U) (B2U) (B1G) (B3U) (B1U) (B1G) (B3U) (B3G)
                 (B2U) (AG) (B2U) (B3U) (AG) (B1G) (B2U) (B3G)
                 (AG) (B1U) (B2U) (B1G) (B3G) (B1U) (AG) (AG) (B2U)
                 (B3U) (B2U) (B1U) (AG) (B2G) (AG) (B1G) (B2G)
                 (AU) (B2U) (B3G) (AU) (B1U) (B2G) (B3U) (B1U)
                 (B3G) (AG) (B2U) (B3G) (AG) (B2U) (B1U) (AG) (B1G)
                 (B2U) (AU) (AG) (B3G) (B3U) (B2G) (B1G) (B2G)
                 (B3U) (AU) (B1G) (B3U) (B2U) (B3U) (AG) (B2G)
                 (AU) (B1G) (B3U) (B2G) (AU) (B3G) (B1U) (B2U)
                 (B1G) (B1U) (AG) (AG) (B2U) (B3U) (B1G) (B3G)
                 (B1U) (B2G) (B2U) (AU) (B1U) (B3G) (AG) (B2U)
                 (B1G) (B2G) (B3U) (AU) (B3U) (AG) (B2U) (B2G)
                 (B1G) (B3G) (B1U) (B3U) (AG) (AU) (B2U) (B1G)
                 (B1U) (B3G) (B3U) (AG) (B3U) (B1U) (B3G) (B2U)
                 (B1U) (B1G) (AG) (AG) (B3G) (B3U) (B1G) (B2U)
                 (B2U) (B2G) (B3U) (B3G) (AG) (B2G) (B1U) (B2U)
                 (B3G) (AG) (B2U) (B1U) (AU) (B1G) (AG) (B3U) (B3G)
                 (B1G) (B1U) (B2U) (B3G) (AG) (B2U) (B1U) (B1G)
                 (B3U) (B1U) (AG) (AG) (AU) (B2G) (AU) (B2U) (B1U)
                 (AG) (B2G) (B3G) (B3G) (AU) (B2G) (B1U) (AG) (B2U)
                 (B3G) (AU) (B2G) (B1G) (AG) (B1U) (B3G) (B2U)
                 (B3U) (AU) (B1U) (B1G) (B3U) (B2G) (B2U) (AU)
                 (B3G) (B2U) (B3G) (B2G) (AG) (B1U) (AG) (B1G)
                 (B3U) (B1U) (B2G) (B1U) (AU) (B3G) (AU) (B2U)
                 (B3G) (B3U) (B1U) (B3G) (B1U) (B2G) (B1G) (AG)
                 (AU) (B2G) (B3G) (B2U) (AU) (B1G) (B1U) (AG) (AU)
                 (B1U) (AG) (B2G) (B2U) (B2G) (AG) (B1U) (B3G)
                 (B2U) (B3U) (AG) (B3G) (B1U) (B1G) (B1G) (B2U)
                 (AG) (B2U) (B3U) (B3G) (B1G) (B3U) (AG) (AU) (B2G)
                 (B2U) (B1U) (B2G) (B3G) (B1G) (AG) (AU) (B3U)
                 (B3G) (B1G) (B3U) (AG) (B1U) (AU) (B1U) (B2U)
                 (B1U) (B2U) (B2G) (B3G) (AG) (AU) (B2G) (B1U)
                 (B3G) (B2U) (B3U) (B1G) (B2U) (B1U) (B2G) (AG)
                 (AU) (B3U) (B3G) (B1U) (B2G) (AG) (AU) (B3G) (B1U)
                 (B1G) (B3G) (B3G) (B1U) (B3G) (B2U) (B3U) (AU)
                 (AG) (B2G) (B2U) (B1U) (B3G) (AG) (AU) (B1U) (B2U)
                 (B2G) (B1G) (B2U) (B3U) (AG) (AU) (B2G) (B3G)
                 (AG) (AU) (B1U) (B2U) (B3U) (B1U) (B2U) (AG) (B3G)
                 (B1G) (B2U) (AG) (B2U) (B3G) (AG) (B3U) (B2U)
                 (AG) (B1G) (B1U) (B2G) (B3G) (AG) (B1U) (B1G)
                 (B2U) (B3U) (B3G) (B1U) (B1G) (B3U) (B3G) (B2G)
                 (B3G) (AG) (B1U) (AG) (AU) (B2U) (AU) (B2G) (AG)
                 (B2U) (B3G) (B1U) (B2G) (AU) (AG) (B3G) (B1U)
                 (B1G) (B3U) (B3G) (AG) (B2G) (B2U) (AU) (B2U)
                 (B1U) (AG) (B2U) (B2G) (AU) (B1U) (AG) (B1U) (B2U)
                 (B2G) (AU) (B3G) (B3G) (B3U) (B3U) (B1G) (AG)
                 (B2U) (B1G) (B3U) (B2U) (B2G) (AG) (B2U) (B1U)
                 (B3G) (AG) (B2U) (B1U) (B3G) (AU) (AG) (B3G) (B1U)
                 (B2U) (AG) (B1U) (B2G) (AG) (B2U) (B3G) (B1U)
                 (B2G) (AU) (B1U) (AG) (B3G) (B1U) (B3G) (B3G)
                 (B1U) (B2U) (B2U) (B3G) (B1U) (B1U) (AG) (B3G)
                 (AG) (B2U) (B1U) (B3G) (B1U) (AG) (B2U) (B1U)
                 (B3G) (AG) (B3G) (B2U) (B1U) (B3G) (AG) (B2U)
                 (B1U) (B3G) (B1U) (B3G) (B1U) (B3G) (B1U) (B3G)
                 (AG) (B2U) (AG) (B2U) (AG) (B3G) (B1U) (B3G) (B1U)
                 (B2U) (AG) (B2U) (AG) (B2U) (AG) (B3G) (B1U) (B1U)
                 (B3G) (B1U) (B3G) (B1U)
 The electronic state is 1-AG.
 Alpha  occ. eigenvalues --  -11.25071 -11.25066 -11.25003 -11.25003 -11.24986
 Alpha  occ. eigenvalues --  -11.24977 -11.24915 -11.24915 -11.24237 -11.24236
 Alpha  occ. eigenvalues --  -11.24191 -11.24191 -11.24190 -11.24190 -11.24172
 Alpha  occ. eigenvalues --  -11.24172 -11.24139 -11.24139 -11.24031 -11.24031
 Alpha  occ. eigenvalues --  -11.23970 -11.23970  -1.19094  -1.17265  -1.14332
 Alpha  occ. eigenvalues --   -1.10348  -1.07317  -1.05402  -1.05396  -1.02412
 Alpha  occ. eigenvalues --   -1.00235  -0.98443  -0.93691  -0.90745  -0.84830
 Alpha  occ. eigenvalues --   -0.84488  -0.81771  -0.80575  -0.80351  -0.78513
 Alpha  occ. eigenvalues --   -0.71584  -0.70604  -0.70285  -0.66772  -0.65890
 Alpha  occ. eigenvalues --   -0.65016  -0.62934  -0.62467  -0.61824  -0.60382
 Alpha  occ. eigenvalues --   -0.59062  -0.58363  -0.57431  -0.57167  -0.56488
 Alpha  occ. eigenvalues --   -0.56037  -0.55400  -0.53068  -0.52931  -0.51115
 Alpha  occ. eigenvalues --   -0.49857  -0.48987  -0.48419  -0.47709  -0.46714
 Alpha  occ. eigenvalues --   -0.43628  -0.42193  -0.39437  -0.37068  -0.35046
 Alpha  occ. eigenvalues --   -0.29996  -0.29147  -0.22161
 Alpha virt. eigenvalues --    0.01223   0.08721   0.09284   0.13774   0.14415
 Alpha virt. eigenvalues --    0.14644   0.14709   0.15181   0.15864   0.16997
 Alpha virt. eigenvalues --    0.17047   0.17290   0.17304   0.17333   0.19068
 Alpha virt. eigenvalues --    0.19127   0.20415   0.21770   0.23313   0.25452
 Alpha virt. eigenvalues --    0.25954   0.28321   0.30905   0.32024   0.32713
 Alpha virt. eigenvalues --    0.33528   0.34468   0.36133   0.36334   0.38161
 Alpha virt. eigenvalues --    0.38350   0.38638   0.39480   0.40050   0.40532
 Alpha virt. eigenvalues --    0.41332   0.41873   0.41955   0.42502   0.42558
 Alpha virt. eigenvalues --    0.42948   0.42973   0.44112   0.44604   0.45078
 Alpha virt. eigenvalues --    0.45873   0.46609   0.47340   0.47426   0.47959
 Alpha virt. eigenvalues --    0.48060   0.48264   0.48588   0.49717   0.50025
 Alpha virt. eigenvalues --    0.50758   0.51644   0.51714   0.51862   0.52141
 Alpha virt. eigenvalues --    0.52229   0.52454   0.52570   0.53165   0.53998
 Alpha virt. eigenvalues --    0.54407   0.54584   0.54587   0.55233   0.55386
 Alpha virt. eigenvalues --    0.56258   0.56952   0.57332   0.57883   0.58221
 Alpha virt. eigenvalues --    0.58644   0.58905   0.59189   0.60044   0.60220
 Alpha virt. eigenvalues --    0.60345   0.61365   0.61508   0.61763   0.62076
 Alpha virt. eigenvalues --    0.62113   0.62623   0.62935   0.63832   0.64277
 Alpha virt. eigenvalues --    0.64467   0.65331   0.65722   0.65763   0.67011
 Alpha virt. eigenvalues --    0.67042   0.68000   0.69093   0.69116   0.70226
 Alpha virt. eigenvalues --    0.71040   0.71359   0.71362   0.73143   0.73646
 Alpha virt. eigenvalues --    0.74319   0.74746   0.74764   0.75549   0.75798
 Alpha virt. eigenvalues --    0.75832   0.77907   0.77934   0.79274   0.79388
 Alpha virt. eigenvalues --    0.81533   0.81729   0.83896   0.84794   0.85141
 Alpha virt. eigenvalues --    0.85346   0.86153   0.86410   0.86609   0.87022
 Alpha virt. eigenvalues --    0.88632   0.88643   0.89721   0.89942   0.90652
 Alpha virt. eigenvalues --    0.90800   0.92540   0.92792   0.94584   0.95080
 Alpha virt. eigenvalues --    0.95193   0.95198   0.95364   0.95680   0.95863
 Alpha virt. eigenvalues --    0.97162   0.97521   0.98819   0.99306   0.99522
 Alpha virt. eigenvalues --    0.99582   1.00116   1.00423   1.00697   1.01364
 Alpha virt. eigenvalues --    1.01606   1.01983   1.04104   1.04223   1.04879
 Alpha virt. eigenvalues --    1.05074   1.05253   1.07033   1.07043   1.07293
 Alpha virt. eigenvalues --    1.07504   1.07849   1.08784   1.09249   1.09635
 Alpha virt. eigenvalues --    1.09677   1.12627   1.12970   1.13106   1.14455
 Alpha virt. eigenvalues --    1.15285   1.15803   1.15873   1.15988   1.16115
 Alpha virt. eigenvalues --    1.16424   1.19149   1.19234   1.20525   1.20867
 Alpha virt. eigenvalues --    1.21182   1.21739   1.21801   1.22141   1.22703
 Alpha virt. eigenvalues --    1.23151   1.24370   1.25542   1.26465   1.26532
 Alpha virt. eigenvalues --    1.26823   1.26880   1.27797   1.29429   1.29494
 Alpha virt. eigenvalues --    1.29709   1.31589   1.31600   1.32398   1.33352
 Alpha virt. eigenvalues --    1.34522   1.35249   1.36325   1.36423   1.38094
 Alpha virt. eigenvalues --    1.38590   1.38986   1.39745   1.39903   1.39985
 Alpha virt. eigenvalues --    1.41015   1.41261   1.43567   1.44869   1.45249
 Alpha virt. eigenvalues --    1.45752   1.46416   1.46461   1.47154   1.47201
 Alpha virt. eigenvalues --    1.48895   1.50366   1.51232   1.51431   1.51914
 Alpha virt. eigenvalues --    1.52345   1.53871   1.54105   1.54432   1.55004
 Alpha virt. eigenvalues --    1.55370   1.55539   1.56608   1.57141   1.57292
 Alpha virt. eigenvalues --    1.57700   1.58529   1.59302   1.59304   1.60078
 Alpha virt. eigenvalues --    1.60115   1.60151   1.61259   1.62384   1.63563
 Alpha virt. eigenvalues --    1.64379   1.66215   1.66492   1.66547   1.67576
 Alpha virt. eigenvalues --    1.68020   1.68363   1.70129   1.70685   1.71902
 Alpha virt. eigenvalues --    1.72928   1.73063   1.73283   1.73430   1.76512
 Alpha virt. eigenvalues --    1.76996   1.77231   1.80506   1.83384   1.83611
 Alpha virt. eigenvalues --    1.84255   1.85109   1.85907   1.86625   1.90214
 Alpha virt. eigenvalues --    1.91937   1.92059   1.92832   1.96052   1.97449
 Alpha virt. eigenvalues --    1.97473   1.99911   2.00237   2.01334   2.01982
 Alpha virt. eigenvalues --    2.04330   2.04482   2.05341   2.05552   2.08021
 Alpha virt. eigenvalues --    2.08965   2.11318   2.13588   2.13824   2.19564
 Alpha virt. eigenvalues --    2.20256   2.21517   2.24011   2.24772   2.28931
 Alpha virt. eigenvalues --    2.30327   2.31755   2.32922   2.34196   2.35628
 Alpha virt. eigenvalues --    2.37874   2.38631   2.39379   2.39429   2.40924
 Alpha virt. eigenvalues --    2.42748   2.43458   2.43719   2.45671   2.46246
 Alpha virt. eigenvalues --    2.46902   2.47692   2.48074   2.50016   2.50263
 Alpha virt. eigenvalues --    2.52414   2.53076   2.55088   2.55176   2.55414
 Alpha virt. eigenvalues --    2.55506   2.57146   2.59304   2.59576   2.59711
 Alpha virt. eigenvalues --    2.61362   2.61586   2.61803   2.64176   2.64487
 Alpha virt. eigenvalues --    2.70146   2.70514   2.72032   2.72325   2.72819
 Alpha virt. eigenvalues --    2.73569   2.73580   2.74642   2.74717   2.75411
 Alpha virt. eigenvalues --    2.75665   2.76196   2.76340   2.78294   2.78545
 Alpha virt. eigenvalues --    2.79448   2.79849   2.79966   2.80402   2.80624
 Alpha virt. eigenvalues --    2.80701   2.80756   2.81179   2.81377   2.81420
 Alpha virt. eigenvalues --    2.82436   2.82438   2.82725   2.84295   2.84600
 Alpha virt. eigenvalues --    2.86774   2.86898   2.87959   2.88559   2.90201
 Alpha virt. eigenvalues --    2.90875   2.91098   2.91958   2.92583   2.92585
 Alpha virt. eigenvalues --    2.93034   2.94259   2.95310   2.96178   2.98271
 Alpha virt. eigenvalues --    2.99115   3.00604   3.01152   3.01549   3.02285
 Alpha virt. eigenvalues --    3.02909   3.02941   3.03523   3.04106   3.04442
 Alpha virt. eigenvalues --    3.04696   3.05027   3.05661   3.05831   3.06347
 Alpha virt. eigenvalues --    3.06543   3.07312   3.08082   3.08269   3.08369
 Alpha virt. eigenvalues --    3.08915   3.10371   3.12740   3.13033   3.14740
 Alpha virt. eigenvalues --    3.14931   3.15355   3.15676   3.16807   3.18091
 Alpha virt. eigenvalues --    3.19806   3.19880   3.19919   3.21290   3.22440
 Alpha virt. eigenvalues --    3.23172   3.23952   3.24638   3.25090   3.25768
 Alpha virt. eigenvalues --    3.26410   3.27017   3.27238   3.27436   3.29115
 Alpha virt. eigenvalues --    3.29526   3.29859   3.29888   3.30166   3.30440
 Alpha virt. eigenvalues --    3.31308   3.31589   3.32016   3.32497   3.32544
 Alpha virt. eigenvalues --    3.32831   3.32996   3.33714   3.34295   3.34770
 Alpha virt. eigenvalues --    3.34778   3.35114   3.35314   3.36437   3.36868
 Alpha virt. eigenvalues --    3.37013   3.37895   3.37978   3.38954   3.39092
 Alpha virt. eigenvalues --    3.39137   3.39533   3.39563   3.39642   3.40075
 Alpha virt. eigenvalues --    3.40600   3.40871   3.41240   3.41843   3.42022
 Alpha virt. eigenvalues --    3.42671   3.43805   3.44071   3.44871   3.45669
 Alpha virt. eigenvalues --    3.46920   3.48209   3.48353   3.48418   3.49159
 Alpha virt. eigenvalues --    3.49480   3.50252   3.51375   3.51387   3.51451
 Alpha virt. eigenvalues --    3.52005   3.54193   3.55078   3.55409   3.56256
 Alpha virt. eigenvalues --    3.57137   3.57760   3.58574   3.58632   3.59349
 Alpha virt. eigenvalues --    3.59985   3.60318   3.61338   3.61913   3.61978
 Alpha virt. eigenvalues --    3.62370   3.62551   3.62785   3.62973   3.63150
 Alpha virt. eigenvalues --    3.63650   3.63989   3.64652   3.65776   3.66047
 Alpha virt. eigenvalues --    3.66130   3.66234   3.66338   3.66651   3.67173
 Alpha virt. eigenvalues --    3.67363   3.68172   3.68696   3.70085   3.70993
 Alpha virt. eigenvalues --    3.73292   3.73440   3.75210   3.75586   3.76103
 Alpha virt. eigenvalues --    3.76855   3.77919   3.78256   3.80552   3.80972
 Alpha virt. eigenvalues --    3.81587   3.81939   3.82514   3.82953   3.84124
 Alpha virt. eigenvalues --    3.84137   3.84532   3.87106   3.87182   3.87184
 Alpha virt. eigenvalues --    3.87300   3.87694   3.90355   3.90672   3.92958
 Alpha virt. eigenvalues --    3.93198   3.93338   3.94988   3.95961   3.96195
 Alpha virt. eigenvalues --    3.96601   3.97647   3.98798   3.99308   3.99576
 Alpha virt. eigenvalues --    3.99929   4.01235   4.02226   4.02421   4.03103
 Alpha virt. eigenvalues --    4.03166   4.03506   4.03626   4.04092   4.04419
 Alpha virt. eigenvalues --    4.04538   4.05175   4.05918   4.07063   4.07445
 Alpha virt. eigenvalues --    4.07879   4.08658   4.11523   4.11659   4.11937
 Alpha virt. eigenvalues --    4.12903   4.13657   4.13687   4.14166   4.15237
 Alpha virt. eigenvalues --    4.15287   4.15318   4.15368   4.15795   4.16614
 Alpha virt. eigenvalues --    4.17565   4.20154   4.20219   4.21187   4.23559
 Alpha virt. eigenvalues --    4.23717   4.23850   4.24536   4.24890   4.27352
 Alpha virt. eigenvalues --    4.27741   4.27908   4.28471   4.29099   4.29295
 Alpha virt. eigenvalues --    4.29729   4.29829   4.30260   4.30520   4.31214
 Alpha virt. eigenvalues --    4.31228   4.31515   4.32717   4.33327   4.33771
 Alpha virt. eigenvalues --    4.35242   4.36359   4.38397   4.39514   4.41629
 Alpha virt. eigenvalues --    4.42408   4.42778   4.43870   4.44367   4.44432
 Alpha virt. eigenvalues --    4.44443   4.46070   4.47377   4.47840   4.48197
 Alpha virt. eigenvalues --    4.50602   4.51168   4.51470   4.52906   4.52953
 Alpha virt. eigenvalues --    4.52994   4.53069   4.53133   4.53309   4.54462
 Alpha virt. eigenvalues --    4.54526   4.55232   4.56539   4.57187   4.57803
 Alpha virt. eigenvalues --    4.57911   4.59522   4.59720   4.59956   4.60248
 Alpha virt. eigenvalues --    4.61140   4.62855   4.63108   4.64118   4.64898
 Alpha virt. eigenvalues --    4.64938   4.65836   4.66143   4.66171   4.66988
 Alpha virt. eigenvalues --    4.67870   4.68429   4.69291   4.69520   4.72123
 Alpha virt. eigenvalues --    4.72187   4.74454   4.75284   4.76314   4.77630
 Alpha virt. eigenvalues --    4.78639   4.78815   4.79583   4.79869   4.80919
 Alpha virt. eigenvalues --    4.81861   4.82617   4.84314   4.84602   4.86188
 Alpha virt. eigenvalues --    4.86699   4.87673   4.88650   4.90500   4.91696
 Alpha virt. eigenvalues --    4.93708   4.96296   4.98157   4.99743   5.00273
 Alpha virt. eigenvalues --    5.00857   5.01413   5.01453   5.04954   5.06256
 Alpha virt. eigenvalues --    5.06576   5.08157   5.10184   5.10281   5.10892
 Alpha virt. eigenvalues --    5.13783   5.13931   5.14177   5.14195   5.15451
 Alpha virt. eigenvalues --    5.17771   5.17780   5.17868   5.18756   5.19476
 Alpha virt. eigenvalues --    5.21350   5.22493   5.22551   5.24135   5.25373
 Alpha virt. eigenvalues --    5.27341   5.28012   5.30170   5.30619   5.32687
 Alpha virt. eigenvalues --    5.34031   5.34043   5.35112   5.36093   5.38653
 Alpha virt. eigenvalues --    5.41539   5.42979   5.44615   5.45302   5.48396
 Alpha virt. eigenvalues --    5.50128   5.50653   5.52535   5.54111   5.55255
 Alpha virt. eigenvalues --    5.55541   5.57106   5.59378   5.62930   5.63279
 Alpha virt. eigenvalues --    5.66329   5.66591   5.67476   5.71285   5.73215
 Alpha virt. eigenvalues --    5.74471   5.79444   5.83412   5.86112   5.87514
 Alpha virt. eigenvalues --    5.91260   5.94593   5.98337   5.98546   5.99428
 Alpha virt. eigenvalues --    6.12009   6.12817   6.16576   6.17760   6.21436
 Alpha virt. eigenvalues --    6.21593   6.22715   6.25200   6.25444   6.31639
 Alpha virt. eigenvalues --    6.32863   6.35002   6.35383   6.40087   6.42724
 Alpha virt. eigenvalues --    6.46493   6.50472   6.54028   6.54459   6.57303
 Alpha virt. eigenvalues --    6.72054   6.77210   6.82829   7.01169   7.24396
 Alpha virt. eigenvalues --    7.40700   8.15375   9.53457  10.78055  11.69565
 Alpha virt. eigenvalues --   12.46870  12.52734  12.85495  13.07105  13.37487
 Alpha virt. eigenvalues --   13.42797  13.79640  13.85707  14.06939  14.29518
 Alpha virt. eigenvalues --   14.48491  14.53716  15.59653  15.68001  15.72858
 Alpha virt. eigenvalues --   15.88761  16.07929  16.91401
          Condensed to atoms (all electrons):
 Mulliken charges:
               1
     1  C   -0.171269
     2  C   -0.171269
     3  C   -0.161515
     4  C    0.080560
     5  C   -0.210218
     6  C    0.084079
     7  C   -0.214811
     8  C    0.084079
     9  C   -0.210218
    10  C    0.080560
    11  C   -0.161515
    12  C   -0.171269
    13  C   -0.171269
    14  C   -0.161515
    15  C    0.080560
    16  C   -0.210218
    17  C    0.084079
    18  C   -0.214811
    19  C    0.084079
    20  C   -0.210218
    21  C    0.080560
    22  C   -0.161515
    23  H    0.149020
    24  H    0.149020
    25  H    0.140715
    26  H    0.130977
    27  H    0.130115
    28  H    0.130977
    29  H    0.140715
    30  H    0.149020
    31  H    0.149020
    32  H    0.140715
    33  H    0.130977
    34  H    0.130115
    35  H    0.130977
    36  H    0.140715
 Sum of Mulliken charges =  -0.00000
 Mulliken charges with hydrogens summed into heavy atoms:
               1
     1  C   -0.022249
     2  C   -0.022249
     3  C   -0.020800
     4  C    0.080560
     5  C   -0.079241
     6  C    0.084079
     7  C   -0.084697
     8  C    0.084079
     9  C   -0.079241
    10  C    0.080560
    11  C   -0.020800
    12  C   -0.022249
    13  C   -0.022249
    14  C   -0.020800
    15  C    0.080560
    16  C   -0.079241
    17  C    0.084079
    18  C   -0.084697
    19  C    0.084079
    20  C   -0.079241
    21  C    0.080560
    22  C   -0.020800
 Electronic spatial extent (au):  <R**2>=           9353.7090
 Charge=             -0.0000 electrons
 Dipole moment (field-independent basis, Debye):
    X=             -0.0000    Y=             -0.0000    Z=              0.0000  Tot=              0.0000
 Unable to Open any file for archive entry.
 1\1\GINC-GPU\SP\RCCSD(T)-FC\CC-pVTZ\C22H14\XUHJ\15-Feb-2025\0\\#T CCSD
 (T)/cc-pVTZ symm=veryloose geom=allcheck\\c1ccc2cc3cc4cc5ccccc5cc4cc3c
 c2c1\\0,1\C,0,0.,6.125098,0.71716\C,0,0.,6.125098,-0.71716\C,0,0.,4.94
 6161,-1.41183\C,0,0.,3.682542,-0.728089\C,0,0.,2.469762,-1.409278\C,0,
 0.,1.227753,-0.728974\C,0,0.,0.,-1.409919\C,0,0.,-1.227753,-0.728974\C
 ,0,0.,-2.469762,-1.409278\C,0,0.,-3.682542,-0.728089\C,0,0.,-4.946161,
 -1.41183\C,0,0.,-6.125098,-0.71716\C,0,0.,-6.125098,0.71716\C,0,0.,-4.
 946161,1.41183\C,0,0.,-3.682542,0.728089\C,0,0.,-2.469762,1.409278\C,0
 ,0.,-1.227753,0.728974\C,0,0.,0.,1.409919\C,0,0.,1.227753,0.728974\C,0
 ,0.,2.469762,1.409278\C,0,0.,3.682542,0.728089\C,0,0.,4.946161,1.41183
 \H,0,0.,7.079066,1.252689\H,0,0.,7.079066,-1.252689\H,0,0.,4.94393,-2.
 50624\H,0,0.,2.47,-2.503902\H,0,0.,0.,-2.504421\H,0,0.,-2.47,-2.503902
 \H,0,0.,-4.94393,-2.50624\H,0,0.,-7.079066,-1.252689\H,0,0.,-7.079066,
 1.252689\H,0,0.,-4.94393,2.50624\H,0,0.,-2.47,2.503902\H,0,0.,0.,2.504
 421\H,0,0.,2.47,2.503902\H,0,0.,4.94393,2.50624\\Version=ES64L-G16RevC
 .01\State=1-AG\HF=-841.5225412\MP2=-844.9651098\MP3=-844.9934274\MP4D=
 -845.0833023\MP4DQ=-844.9511515\MP4SDQ=-844.9826105\CCSD=-844.9844799\
 CCSD(T)=-845.1943221\RMSD=4.323e-09\PG=D02H [C2"(H1C1.C1H1),SG(C20H12)
 ]\\@
 The archive entry for this job was punched.


 THE MORE PROGRESS PHYSICAL SCIENCES MAKE, THE MORE THEY TEND TO ENTER
 THE DOMAIN OF MATHEMATICS, WHICH IS A KIND OF CENTRE TO WHICH THEY ALL
 CONVERGE.  WE MAY EVEN JUDGE THE DEGREE OF PERFECTION TO WHICH A 
 SCIENCE HAS ARRIVED BY THE FACILITY WITH WHICH IT MAY BE SUBMITTED
 TO CALCULATION.

                               -- ADOLPHE QUETELET, 1796-1874
 Job cpu time:      60 days 20 hours 35 minutes 24.5 seconds.
 Elapsed time:       3 days 19 hours 36 minutes 12.0 seconds.
 File lengths (MBytes):  RWF= 200884 Int=      0 D2E=      0 Chk=     52 Scr=      1
 Normal termination of Gaussian 16 at Sat Feb 15 13:21:57 2025.
