 Entering Gaussian System, Link 0=g16
 Initial command:
 /home/software/g16/l1.exe "/home/software/g16tmp/Gau-115907.inp" -scrdir="/home/software/g16tmp/"
 Default is to use a total of   8 processors:
                                8 via shared-memory
                                1 via Linda
 Entering Link 1 = /home/software/g16/l1.exe PID=    115908.
  
 Copyright (c) 1988-2019, Gaussian, Inc.  All Rights Reserved.
  
 This is part of the Gaussian(R) 16 program.  It is based on
 the Gaussian(R) 09 system (copyright 2009, Gaussian, Inc.),
 the Gaussian(R) 03 system (copyright 2003, Gaussian, Inc.),
 the Gaussian(R) 98 system (copyright 1998, Gaussian, Inc.),
 the Gaussian(R) 94 system (copyright 1995, Gaussian, Inc.),
 the Gaussian 92(TM) system (copyright 1992, Gaussian, Inc.),
 the Gaussian 90(TM) system (copyright 1990, Gaussian, Inc.),
 the Gaussian 88(TM) system (copyright 1988, Gaussian, Inc.),
 the Gaussian 86(TM) system (copyright 1986, Carnegie Mellon
 University), and the Gaussian 82(TM) system (copyright 1983,
 Carnegie Mellon University). Gaussian is a federally registered
 trademark of Gaussian, Inc.
  
 This software contains proprietary and confidential information,
 including trade secrets, belonging to Gaussian, Inc.
  
 This software is provided under written license and may be
 used, copied, transmitted, or stored only in accord with that
 written license.
  
 The following legend is applicable only to US Government
 contracts under FAR:
  
                    RESTRICTED RIGHTS LEGEND
  
 Use, reproduction and disclosure by the US Government is
 subject to restrictions as set forth in subparagraphs (a)
 and (c) of the Commercial Computer Software - Restricted
 Rights clause in FAR 52.227-19.
  
 Gaussian, Inc.
 340 Quinnipiac St., Bldg. 40, Wallingford CT 06492
  
  
 ---------------------------------------------------------------
 Warning -- This program may not be used in any manner that
 competes with the business of Gaussian, Inc. or will provide
 assistance to any competitor of Gaussian, Inc.  The licensee
 of this program is prohibited from giving any competitor of
 Gaussian, Inc. access to this program.  By using this program,
 the user acknowledges that Gaussian, Inc. is engaged in the
 business of creating and licensing software in the field of
 computational chemistry and represents and warrants to the
 licensee that it is not a competitor of Gaussian, Inc. and that
 it will not use this program in any manner prohibited above.
 ---------------------------------------------------------------
  

 Cite this work as:
 Gaussian 16, Revision C.01,
 M. J. Frisch, G. W. Trucks, H. B. Schlegel, G. E. Scuseria, 
 M. A. Robb, J. R. Cheeseman, G. Scalmani, V. Barone, 
 G. A. Petersson, H. Nakatsuji, X. Li, M. Caricato, A. V. Marenich, 
 J. Bloino, B. G. Janesko, R. Gomperts, B. Mennucci, H. P. Hratchian, 
 J. V. Ortiz, A. F. Izmaylov, J. L. Sonnenberg, D. Williams-Young, 
 F. Ding, F. Lipparini, F. Egidi, J. Goings, B. Peng, A. Petrone, 
 T. Henderson, D. Ranasinghe, V. G. Zakrzewski, J. Gao, N. Rega, 
 G. Zheng, W. Liang, M. Hada, M. Ehara, K. Toyota, R. Fukuda, 
 J. Hasegawa, M. Ishida, T. Nakajima, Y. Honda, O. Kitao, H. Nakai, 
 T. Vreven, K. Throssell, J. A. Montgomery, Jr., J. E. Peralta, 
 F. Ogliaro, M. J. Bearpark, J. J. Heyd, E. N. Brothers, K. N. Kudin, 
 V. N. Staroverov, T. A. Keith, R. Kobayashi, J. Normand, 
 K. Raghavachari, A. P. Rendell, J. C. Burant, S. S. Iyengar, 
 J. Tomasi, M. Cossi, J. M. Millam, M. Klene, C. Adamo, R. Cammi, 
 J. W. Ochterski, R. L. Martin, K. Morokuma, O. Farkas, 
 J. B. Foresman, and D. J. Fox, Gaussian, Inc., Wallingford CT, 2019.
 
 ******************************************
 Gaussian 16:  ES64L-G16RevC.01  3-Jul-2019
                20-Dec-2023 
 ******************************************
 %nprocshared=16
 Will use up to   16 processors via shared memory.
 %mem=8000MB
 %chk=VGGSQFUCUMXWEO-UHFFFAOYSA-N.chk
 ---------------------------------
 #T CCSD(T)/cc-pVDZ symm=veryloose
 ---------------------------------
 ---
 C=C
 ---
 Symbolic Z-matrix:
 Charge =  0 Multiplicity = 1
 C                     0.        0.       -0.66735 
 C                     0.        0.        0.66735 
 H                     0.       -0.93385  -1.24389 
 H                     0.        0.93385  -1.24389 
 H                     0.       -0.93385   1.24389 
 H                     0.        0.93385   1.24389 
 
                    Distance matrix (angstroms):
                    1          2          3          4          5
     1  C    0.000000
     2  C    1.334706   0.000000
     3  H    1.097481   2.127184   0.000000
     4  H    1.097481   2.127184   1.867698   0.000000
     5  H    2.127184   1.097481   2.487774   3.110838   0.000000
     6  H    2.127184   1.097481   3.110838   2.487774   1.867698
                    6
     6  H    0.000000
 Framework group  D2H[C2"(C.C),SG(H4)]
 Deg. of freedom     3
                         Standard orientation:                         
 ---------------------------------------------------------------------
 Center     Atomic      Atomic             Coordinates (Angstroms)
 Number     Number       Type             X           Y           Z
 ---------------------------------------------------------------------
      1          6           0       -0.000000    0.000000    0.667353
      2          6           0        0.000000    0.000000   -0.667353
      3          1           0        0.000000    0.933849    1.243887
      4          1           0       -0.000000   -0.933849    1.243887
      5          1           0        0.000000    0.933849   -1.243887
      6          1           0       -0.000000   -0.933849   -1.243887
 ---------------------------------------------------------------------
 Rotational constants (GHZ):         143.7536065          29.8579900          24.7229669
    48 basis functions,    94 primitive gaussians,    50 cartesian basis functions
     8 alpha electrons        8 beta electrons
       nuclear repulsion energy        33.1480243523 Hartrees.
 NAtoms=    6 NActive=    6 NUniq=    2 SFac= 4.00D+00 NAtFMM=   60 NAOKFM=F Big=F
 ExpMin= 1.22D-01 ExpMax= 6.67D+03 ExpMxC= 2.28D+02 IAcc=3 IRadAn=         5 AccDes= 0.00D+00
 Harris functional with IExCor=  205 and IRadAn=       5 diagonalized for initial guess.
 HarFok:  IExCor=  205 AccDes= 0.00D+00 IRadAn=         5 IDoV= 1 UseB2=F ITyADJ=14
 ICtDFT=  3500011 ScaDFX=  1.000000  1.000000  1.000000  1.000000
 FoFCou: FMM=F IPFlag=           0 FMFlag=      100000 FMFlg1=           0
         NFxFlg=           0 DoJE=T BraDBF=F KetDBF=T FulRan=T
         wScrn=  0.000000 ICntrl=       500 IOpCl=  0 I1Cent=   200000004 NGrid=           0
         NMat0=    1 NMatS0=      1 NMatT0=    0 NMatD0=    1 NMtDS0=    0 NMtDT0=    0
 Petite list used in FoFCou.
 Initial guess orbital symmetries:
       Occupied  (AG) (B1U) (AG) (B1U) (B2U) (AG) (B3G) (B3U)
       Virtual   (B2G) (AG) (B2U) (B1U) (B3G) (B1U) (AG) (B2U)
                 (B3U) (AG) (B1U) (B2G) (B2U) (B3G) (B1U) (AG)
                 (B1G) (B3U) (B1U) (B3G) (AU) (AG) (B2U) (B3G)
                 (B2G) (B1U) (AG) (B2U) (B1G) (B3U) (B1U) (B2G)
                 (AU) (B3G) (AG) (B1U) (AG) (B2U) (B1U) (B3G)
 The electronic state of the initial guess is 1-AG.
 SCF Done:  E(RHF) =  -78.0393949533     A.U. after    9 cycles
            NFock=  9  Conv=0.27D-08     -V/T= 2.0030
 ExpMin= 1.22D-01 ExpMax= 6.67D+03 ExpMxC= 2.28D+02 IAcc=3 IRadAn=         5 AccDes= 0.00D+00
 HarFok:  IExCor=  205 AccDes= 0.00D+00 IRadAn=         5 IDoV=-2 UseB2=F ITyADJ=14
 ICtDFT= 12500011 ScaDFX=  1.000000  1.000000  1.000000  1.000000
 NROrb=     46 NOA=     6 NOB=     6 NVA=    40 NVB=    40
 Semi-Direct transformation.
 ModeAB=           4 MOrb=             6 LenV=    1048348783
 LASXX=        34699 LTotXX=       34699 LenRXX=       72206
 LTotAB=       37507 MaxLAS=      139104 LenRXY=           0
 NonZer=      106905 LenScr=      655360 LnRSAI=      139104
 LnScr1=      655360 LExtra=           0 Total=      1522030
 MaxDsk=          -1 SrtSym=           T ITran=            4
 JobTyp=0 Pass  1:  I=   1 to   6.
 (rs|ai) integrals will be sorted in core.
 ANorm=    0.1049995348D+01
 E2 =    -0.2757509527D+00 EUMP2 =    -0.78315145906048D+02
 CIDS: In Core Option IDoMem=           1.
 Produce multiple copies of IABC intergrals
 MP4(R+Q)=  0.60411504D-02
 E3=       -0.25317869D-01        EUMP3=      -0.78340463775D+02
 E4(DQ)=   -0.20635104D-02        UMP4(DQ)=   -0.78342527285D+02
 E4(SDQ)=  -0.39853714D-02        UMP4(SDQ)=  -0.78344449146D+02
 DE(Corr)= -0.29497163     E(Corr)=     -78.334366581    
 NORM(A)=   0.10593804D+01
 DE(Corr)= -0.30312879     E(CORR)=     -78.342523741     Delta=-8.16D-03
 NORM(A)=   0.10650453D+01
 DE(Corr)= -0.30526717     E(CORR)=     -78.344662121     Delta=-2.14D-03
 NORM(A)=   0.10664869D+01
 DE(Corr)= -0.30600388     E(CORR)=     -78.345398834     Delta=-7.37D-04
 NORM(A)=   0.10668746D+01
 DE(Corr)= -0.30608743     E(CORR)=     -78.345482381     Delta=-8.35D-05
 NORM(A)=   0.10669060D+01
 DE(Corr)= -0.30609010     E(CORR)=     -78.345485050     Delta=-2.67D-06
 NORM(A)=   0.10669057D+01
 DE(Corr)= -0.30608959     E(CORR)=     -78.345484541     Delta= 5.09D-07
 NORM(A)=   0.10669079D+01
 DE(Corr)= -0.30608965     E(CORR)=     -78.345484608     Delta=-6.69D-08
 NORM(A)=   0.10669077D+01
 Wavefunction amplitudes converged. E(Corr)=     -78.345484608    
 Dominant configurations:
 ***********************
 Spin Case        I    J    A    B          Value
   ABAB           8    8    9    9      -0.137202D+00
 Largest amplitude= 1.37D-01
 Time for triples=       11.64 seconds.
 T4(CCSD)= -0.10186008D-01
 T5(CCSD)=  0.27769051D-03
 CCSD(T)= -0.78355392925D+02
 Discarding MO integrals.

 **********************************************************************

            Population analysis using the SCF Density.

 **********************************************************************

 Orbital symmetries:
       Occupied  (AG) (B1U) (AG) (B1U) (B2U) (AG) (B3G) (B3U)
       Virtual   (B2G) (AG) (B2U) (B1U) (B3G) (B1U) (AG) (B2U)
                 (B3U) (AG) (B1U) (B2G) (B2U) (B3G) (B1U) (AG)
                 (B1G) (B1U) (B3G) (B3U) (AU) (AG) (B3G) (B2U)
                 (B2G) (AG) (B1U) (B2U) (B1G) (B3U) (B2G) (B1U)
                 (AU) (B3G) (AG) (B1U) (AG) (B2U) (B1U) (B3G)
 The electronic state is 1-AG.
 Alpha  occ. eigenvalues --  -11.23980 -11.23816  -1.02910  -0.78483  -0.63381
 Alpha  occ. eigenvalues --   -0.58182  -0.49872  -0.37425
 Alpha virt. eigenvalues --    0.16760   0.20231   0.23057   0.23582   0.30279
 Alpha virt. eigenvalues --    0.46242   0.58026   0.60797   0.68876   0.70352
 Alpha virt. eigenvalues --    0.77340   0.80716   0.85776   0.92599   0.96943
 Alpha virt. eigenvalues --    1.00463   1.12977   1.23670   1.23938   1.26182
 Alpha virt. eigenvalues --    1.29027   1.59126   1.72650   1.74151   1.80856
 Alpha virt. eigenvalues --    1.85056   1.85094   1.89741   1.96135   1.96988
 Alpha virt. eigenvalues --    2.22259   2.24483   2.35118   2.41642   2.48773
 Alpha virt. eigenvalues --    2.61758   2.67048   2.78800   3.09069   3.35956
          Condensed to atoms (all electrons):
 Mulliken charges:
               1
     1  C   -0.107138
     2  C   -0.107138
     3  H    0.053569
     4  H    0.053569
     5  H    0.053569
     6  H    0.053569
 Sum of Mulliken charges =  -0.00000
 Mulliken charges with hydrogens summed into heavy atoms:
               1
     1  C   -0.000000
     2  C   -0.000000
 Electronic spatial extent (au):  <R**2>=             83.4874
 Charge=              0.0000 electrons
 Dipole moment (field-independent basis, Debye):
    X=             -0.0000    Y=              0.0000    Z=             -0.0000  Tot=              0.0000
 Unable to Open any file for archive entry.
 1\1\GINC-NODE05\SP\RCCSD(T)-FC\CC-pVDZ\C2H4\XUHJ\20-Dec-2023\0\\#T CCS
 D(T)/cc-pVDZ symm=veryloose\\C=C\\0,1\C,0,0.,0.,-0.667353\C,0,0.,0.,0.
 667353\H,0,0.,-0.933849,-1.243887\H,0,0.,0.933849,-1.243887\H,0,0.,-0.
 933849,1.243887\H,0,0.,0.933849,1.243887\\Version=ES64L-G16RevC.01\Sta
 te=1-AG\HF=-78.039395\MP2=-78.3151459\MP3=-78.3404638\MP4D=-78.3485684
 \MP4DQ=-78.3425273\MP4SDQ=-78.3444491\CCSD=-78.3454846\CCSD(T)=-78.355
 3929\RMSD=2.666e-09\PG=D02H [C2"(C1.C1),SG(H4)]\\@
 The archive entry for this job was punched.


 TO DRY ONE'S EYES AND LAUGH AT A FALL
 AND BAFFLED, GET UP AND BEGIN AGAIN.
           R. BROWNING
 Job cpu time:       0 days  0 hours  0 minutes 40.6 seconds.
 Elapsed time:       0 days  0 hours  0 minutes  2.9 seconds.
 File lengths (MBytes):  RWF=     31 Int=      0 D2E=      0 Chk=      2 Scr=      2
 Normal termination of Gaussian 16 at Wed Dec 20 01:43:43 2023.
 Initial command:
 /home/software/g16/l1.exe "/home/software/g16tmp/Gau-115907.inp" -scrdir="/home/software/g16tmp/"
 Default is to use a total of   8 processors:
                                8 via shared-memory
                                1 via Linda
 Entering Link 1 = /home/software/g16/l1.exe PID=    116105.
  
 Copyright (c) 1988-2019, Gaussian, Inc.  All Rights Reserved.
  
 This is part of the Gaussian(R) 16 program.  It is based on
 the Gaussian(R) 09 system (copyright 2009, Gaussian, Inc.),
 the Gaussian(R) 03 system (copyright 2003, Gaussian, Inc.),
 the Gaussian(R) 98 system (copyright 1998, Gaussian, Inc.),
 the Gaussian(R) 94 system (copyright 1995, Gaussian, Inc.),
 the Gaussian 92(TM) system (copyright 1992, Gaussian, Inc.),
 the Gaussian 90(TM) system (copyright 1990, Gaussian, Inc.),
 the Gaussian 88(TM) system (copyright 1988, Gaussian, Inc.),
 the Gaussian 86(TM) system (copyright 1986, Carnegie Mellon
 University), and the Gaussian 82(TM) system (copyright 1983,
 Carnegie Mellon University). Gaussian is a federally registered
 trademark of Gaussian, Inc.
  
 This software contains proprietary and confidential information,
 including trade secrets, belonging to Gaussian, Inc.
  
 This software is provided under written license and may be
 used, copied, transmitted, or stored only in accord with that
 written license.
  
 The following legend is applicable only to US Government
 contracts under FAR:
  
                    RESTRICTED RIGHTS LEGEND
  
 Use, reproduction and disclosure by the US Government is
 subject to restrictions as set forth in subparagraphs (a)
 and (c) of the Commercial Computer Software - Restricted
 Rights clause in FAR 52.227-19.
  
 Gaussian, Inc.
 340 Quinnipiac St., Bldg. 40, Wallingford CT 06492
  
  
 ---------------------------------------------------------------
 Warning -- This program may not be used in any manner that
 competes with the business of Gaussian, Inc. or will provide
 assistance to any competitor of Gaussian, Inc.  The licensee
 of this program is prohibited from giving any competitor of
 Gaussian, Inc. access to this program.  By using this program,
 the user acknowledges that Gaussian, Inc. is engaged in the
 business of creating and licensing software in the field of
 computational chemistry and represents and warrants to the
 licensee that it is not a competitor of Gaussian, Inc. and that
 it will not use this program in any manner prohibited above.
 ---------------------------------------------------------------
  

 Cite this work as:
 Gaussian 16, Revision C.01,
 M. J. Frisch, G. W. Trucks, H. B. Schlegel, G. E. Scuseria, 
 M. A. Robb, J. R. Cheeseman, G. Scalmani, V. Barone, 
 G. A. Petersson, H. Nakatsuji, X. Li, M. Caricato, A. V. Marenich, 
 J. Bloino, B. G. Janesko, R. Gomperts, B. Mennucci, H. P. Hratchian, 
 J. V. Ortiz, A. F. Izmaylov, J. L. Sonnenberg, D. Williams-Young, 
 F. Ding, F. Lipparini, F. Egidi, J. Goings, B. Peng, A. Petrone, 
 T. Henderson, D. Ranasinghe, V. G. Zakrzewski, J. Gao, N. Rega, 
 G. Zheng, W. Liang, M. Hada, M. Ehara, K. Toyota, R. Fukuda, 
 J. Hasegawa, M. Ishida, T. Nakajima, Y. Honda, O. Kitao, H. Nakai, 
 T. Vreven, K. Throssell, J. A. Montgomery, Jr., J. E. Peralta, 
 F. Ogliaro, M. J. Bearpark, J. J. Heyd, E. N. Brothers, K. N. Kudin, 
 V. N. Staroverov, T. A. Keith, R. Kobayashi, J. Normand, 
 K. Raghavachari, A. P. Rendell, J. C. Burant, S. S. Iyengar, 
 J. Tomasi, M. Cossi, J. M. Millam, M. Klene, C. Adamo, R. Cammi, 
 J. W. Ochterski, R. L. Martin, K. Morokuma, O. Farkas, 
 J. B. Foresman, and D. J. Fox, Gaussian, Inc., Wallingford CT, 2019.
 
 ******************************************
 Gaussian 16:  ES64L-G16RevC.01  3-Jul-2019
                20-Dec-2023 
 ******************************************
 %nprocshared=16
 Will use up to   16 processors via shared memory.
 %mem=8000MB
 %chk=VGGSQFUCUMXWEO-UHFFFAOYSA-N.chk
 -----------------------------------------------
 #T CCSD(T)/cc-pVTZ symm=veryloose geom=allcheck
 -----------------------------------------------
 Structure from the checkpoint file:  "VGGSQFUCUMXWEO-UHFFFAOYSA-N.chk"
 ---
 C=C
 ---
 Charge =  0 Multiplicity = 1
 Z-Matrix found in chk file.
 C,0,0.,0.,-0.667353
 C,0,0.,0.,0.667353
 H,0,0.,-0.933849,-1.243887
 H,0,0.,0.933849,-1.243887
 H,0,0.,-0.933849,1.243887
 H,0,0.,0.933849,1.243887
 Recover connectivity data from disk.
                    Distance matrix (angstroms):
                    1          2          3          4          5
     1  C    0.000000
     2  C    1.334706   0.000000
     3  H    1.097481   2.127184   0.000000
     4  H    1.097481   2.127184   1.867698   0.000000
     5  H    2.127184   1.097481   2.487774   3.110838   0.000000
     6  H    2.127184   1.097481   3.110838   2.487774   1.867698
                    6
     6  H    0.000000
 Framework group  D2H[C2"(C.C),SG(H4)]
 Deg. of freedom     3
                         Standard orientation:                         
 ---------------------------------------------------------------------
 Center     Atomic      Atomic             Coordinates (Angstroms)
 Number     Number       Type             X           Y           Z
 ---------------------------------------------------------------------
      1          6           0        0.000000   -0.000000    0.667353
      2          6           0        0.000000   -0.000000   -0.667353
      3          1           0        0.000000    0.933849    1.243887
      4          1           0       -0.000000   -0.933849    1.243887
      5          1           0        0.000000    0.933849   -1.243887
      6          1           0       -0.000000   -0.933849   -1.243887
 ---------------------------------------------------------------------
 Rotational constants (GHZ):         143.7536065          29.8579900          24.7229669
   116 basis functions,   172 primitive gaussians,   130 cartesian basis functions
     8 alpha electrons        8 beta electrons
       nuclear repulsion energy        33.1480243523 Hartrees.
 NAtoms=    6 NActive=    6 NUniq=    2 SFac= 4.00D+00 NAtFMM=   60 NAOKFM=F Big=F
 ExpMin= 1.03D-01 ExpMax= 8.24D+03 ExpMxC= 2.81D+02 IAcc=3 IRadAn=         5 AccDes= 0.00D+00
 Harris functional with IExCor=  205 and IRadAn=       5 diagonalized for initial guess.
 HarFok:  IExCor=  205 AccDes= 0.00D+00 IRadAn=         5 IDoV= 1 UseB2=F ITyADJ=14
 ICtDFT=  3500011 ScaDFX=  1.000000  1.000000  1.000000  1.000000
 FoFCou: FMM=F IPFlag=           0 FMFlag=      100000 FMFlg1=           0
         NFxFlg=           0 DoJE=T BraDBF=F KetDBF=T FulRan=T
         wScrn=  0.000000 ICntrl=       500 IOpCl=  0 I1Cent=   200000004 NGrid=           0
         NMat0=    1 NMatS0=      1 NMatT0=    0 NMatD0=    1 NMtDS0=    0 NMtDT0=    0
 Petite list used in FoFCou.
 Initial guess orbital symmetries:
       Occupied  (AG) (B1U) (AG) (B1U) (B2U) (AG) (B3G) (B3U)
       Virtual   (B2G) (AG) (B2U) (B1U) (B3G) (B1U) (AG) (B2U)
                 (B3U) (AG) (B2G) (B1U) (B2U) (B1G) (AG) (B3G)
                 (B1U) (B1U) (AU) (B3U) (B3G) (AG) (B3G) (B2U)
                 (B2G) (AG) (B1G) (B3U) (B1U) (B2U) (B2G) (B1U)
                 (B2U) (B3G) (AG) (AU) (B1U) (AG) (B1U) (B3G) (B3U)
                 (AG) (B2G) (AG) (B2U) (B1U) (B2U) (B3U) (B1G)
                 (B3G) (AG) (B2U) (B3G) (B3U) (B1G) (AG) (AU) (B2G)
                 (B1U) (B2U) (B1U) (B3G) (B2G) (B1U) (B3U) (AU)
                 (AG) (B1G) (B2U) (B3G) (AU) (B1U) (AG) (B2G) (B2U)
                 (B3G) (B3U) (AG) (B1G) (B3G) (B1U) (B3U) (B2G)
                 (B1U) (B2U) (AG) (AU) (B1U) (B2G) (B3U) (B3G)
                 (AG) (B2U) (AG) (B1G) (B3G) (B2G) (B1U) (AU) (B2U)
                 (AG) (B1U) (B3G) (B2U) (B1U) (B3G) (AG) (B1U)
 The electronic state of the initial guess is 1-AG.
 SCF Done:  E(RHF) =  -78.0624035176     A.U. after    9 cycles
            NFock=  9  Conv=0.36D-08     -V/T= 2.0029
 ExpMin= 1.03D-01 ExpMax= 8.24D+03 ExpMxC= 2.81D+02 IAcc=3 IRadAn=         5 AccDes= 0.00D+00
 HarFok:  IExCor=  205 AccDes= 0.00D+00 IRadAn=         5 IDoV=-2 UseB2=F ITyADJ=14
 ICtDFT= 12500011 ScaDFX=  1.000000  1.000000  1.000000  1.000000
 NROrb=    114 NOA=     6 NOB=     6 NVA=   108 NVB=   108
 Semi-Direct transformation.
 ModeAB=           4 MOrb=             6 LenV=    1048062891
 LASXX=       549213 LTotXX=      549213 LenRXX=     1115674
 LTotAB=      566461 MaxLAS=     2080728 LenRXY=           0
 NonZer=     1664887 LenScr=     2752512 LnRSAI=     2080728
 LnScr1=     3276800 LExtra=           0 Total=      9225714
 MaxDsk=          -1 SrtSym=           T ITran=            4
 JobTyp=0 Pass  1:  I=   1 to   6.
 (rs|ai) integrals will be sorted in core.
 ANorm=    0.1055451688D+01
 E2 =    -0.3361301677D+00 EUMP2 =    -0.78398533685226D+02
 CIDS: In Core Option IDoMem=           1.
 Produce multiple copies of IABC intergrals
 MP4(R+Q)=  0.88638445D-02
 E3=       -0.22178443D-01        EUMP3=      -0.78420712128D+02
 E4(DQ)=    0.43522965D-03        UMP4(DQ)=   -0.78420276898D+02
 E4(SDQ)=  -0.22682196D-02        UMP4(SDQ)=  -0.78422980347D+02
 DE(Corr)= -0.34928504     E(Corr)=     -78.411688557    
 NORM(A)=   0.10624320D+01
 DE(Corr)= -0.35829292     E(CORR)=     -78.420696438     Delta=-9.01D-03
 NORM(A)=   0.10679430D+01
 DE(Corr)= -0.35977132     E(CORR)=     -78.422174836     Delta=-1.48D-03
 NORM(A)=   0.10693994D+01
 DE(Corr)= -0.36063844     E(CORR)=     -78.423041957     Delta=-8.67D-04
 NORM(A)=   0.10698166D+01
 DE(Corr)= -0.36072736     E(CORR)=     -78.423130877     Delta=-8.89D-05
 NORM(A)=   0.10698643D+01
 DE(Corr)= -0.36073339     E(CORR)=     -78.423136905     Delta=-6.03D-06
 NORM(A)=   0.10698629D+01
 DE(Corr)= -0.36073305     E(CORR)=     -78.423136566     Delta= 3.39D-07
 NORM(A)=   0.10698649D+01
 DE(Corr)= -0.36073274     E(CORR)=     -78.423136257     Delta= 3.08D-07
 NORM(A)=   0.10698649D+01
 DE(Corr)= -0.36073301     E(CORR)=     -78.423136531     Delta=-2.74D-07
 NORM(A)=   0.10698651D+01
 DE(Corr)= -0.36073303     E(CORR)=     -78.423136548     Delta=-1.64D-08
 NORM(A)=   0.10698652D+01
 Wavefunction amplitudes converged. E(Corr)=     -78.423136548    
 Dominant configurations:
 ***********************
 Spin Case        I    J    A    B          Value
   ABAB           8    8    9    9      -0.119053D+00
 Largest amplitude= 1.19D-01
 Time for triples=       76.53 seconds.
 T4(CCSD)= -0.15572896D-01
 T5(CCSD)=  0.42548130D-03
 CCSD(T)= -0.78438283962D+02
 Discarding MO integrals.

 **********************************************************************

            Population analysis using the SCF Density.

 **********************************************************************

 Orbital symmetries:
       Occupied  (AG) (B1U) (AG) (B1U) (B2U) (AG) (B3G) (B3U)
       Virtual   (B2G) (AG) (B1U) (B2U) (B3G) (B1U) (AG) (B2U)
                 (B3U) (AG) (B2G) (B1U) (B2U) (AG) (B1U) (B1G)
                 (B3G) (B1U) (AU) (B3G) (B3U) (AG) (B3G) (B2U)
                 (B2G) (B1G) (AG) (B3U) (B1U) (B2U) (B2G) (B2U)
                 (B1U) (AG) (B3G) (AU) (B1U) (B1U) (AG) (B3G) (AG)
                 (B3U) (B2G) (AG) (B2U) (B1U) (B2U) (B3U) (B3G)
                 (B1G) (B3G) (B2U) (B3U) (B1G) (AG) (AU) (AG) (B2G)
                 (B1U) (B2U) (B1U) (B3G) (B2G) (B1U) (B3U) (AU)
                 (AG) (B1G) (B2U) (B3G) (B1U) (AU) (AG) (B2G) (B2U)
                 (B3G) (B3U) (B1G) (B3G) (AG) (B1U) (B3U) (B2G)
                 (B1U) (B2U) (AU) (AG) (B1U) (B2G) (B3U) (B3G)
                 (AG) (B2U) (AG) (B1G) (B3G) (B2G) (B1U) (AU) (B2U)
                 (AG) (B1U) (B3G) (B2U) (B1U) (B3G) (AG) (B1U)
 The electronic state is 1-AG.
 Alpha  occ. eigenvalues --  -11.23411 -11.23242  -1.02983  -0.78667  -0.63654
 Alpha  occ. eigenvalues --   -0.58519  -0.50159  -0.37647
 Alpha virt. eigenvalues --    0.15139   0.15835   0.18554   0.18956   0.24111
 Alpha virt. eigenvalues --    0.36674   0.37434   0.43710   0.44671   0.48634
 Alpha virt. eigenvalues --    0.56533   0.58624   0.59095   0.63222   0.63455
 Alpha virt. eigenvalues --    0.67731   0.69316   0.79208   0.82530   0.84314
 Alpha virt. eigenvalues --    0.87283   0.98285   1.07490   1.09731   1.17471
 Alpha virt. eigenvalues --    1.21326   1.21444   1.22927   1.28698   1.31503
 Alpha virt. eigenvalues --    1.37858   1.46787   1.47759   1.54344   1.57467
 Alpha virt. eigenvalues --    1.60409   1.61292   1.78820   1.80238   1.89331
 Alpha virt. eigenvalues --    2.33423   2.36416   2.54796   2.55245   2.61324
 Alpha virt. eigenvalues --    2.64080   2.71885   2.73545   2.89657   2.93525
 Alpha virt. eigenvalues --    3.06927   3.09079   3.09152   3.11483   3.11572
 Alpha virt. eigenvalues --    3.13800   3.16498   3.19228   3.23371   3.34231
 Alpha virt. eigenvalues --    3.39626   3.40327   3.42309   3.48416   3.49569
 Alpha virt. eigenvalues --    3.52418   3.55607   3.60329   3.69981   3.77429
 Alpha virt. eigenvalues --    3.90844   3.90952   3.93124   3.99710   3.99825
 Alpha virt. eigenvalues --    4.03117   4.12275   4.17719   4.19832   4.21741
 Alpha virt. eigenvalues --    4.25215   4.30274   4.33872   4.37391   4.42803
 Alpha virt. eigenvalues --    4.52005   4.63844   4.82356   4.85434   4.88324
 Alpha virt. eigenvalues --    4.91876   4.97173   5.07590   5.16145   5.17229
 Alpha virt. eigenvalues --    5.31363   5.34403   5.38357   5.47529   5.51548
 Alpha virt. eigenvalues --    5.59639   5.74182   6.24831   6.28941   6.34821
 Alpha virt. eigenvalues --    6.75817  11.52446  14.55320
          Condensed to atoms (all electrons):
 Mulliken charges:
               1
     1  C   -0.273933
     2  C   -0.273933
     3  H    0.136966
     4  H    0.136966
     5  H    0.136966
     6  H    0.136966
 Sum of Mulliken charges =   0.00000
 Mulliken charges with hydrogens summed into heavy atoms:
               1
     1  C    0.000000
     2  C    0.000000
 Electronic spatial extent (au):  <R**2>=             83.7276
 Charge=              0.0000 electrons
 Dipole moment (field-independent basis, Debye):
    X=             -0.0000    Y=             -0.0000    Z=              0.0000  Tot=              0.0000
 Unable to Open any file for archive entry.
 1\1\GINC-NODE05\SP\RCCSD(T)-FC\CC-pVTZ\C2H4\XUHJ\20-Dec-2023\0\\#T CCS
 D(T)/cc-pVTZ symm=veryloose geom=allcheck\\C=C\\0,1\C,0,0.,0.,-0.66735
 3\C,0,0.,0.,0.667353\H,0,0.,-0.933849,-1.243887\H,0,0.,0.933849,-1.243
 887\H,0,0.,-0.933849,1.243887\H,0,0.,0.933849,1.243887\\Version=ES64L-
 G16RevC.01\State=1-AG\HF=-78.0624035\MP2=-78.3985337\MP3=-78.4207121\M
 P4D=-78.4291407\MP4DQ=-78.4202769\MP4SDQ=-78.4229803\CCSD=-78.4231365\
 CCSD(T)=-78.438284\RMSD=3.557e-09\PG=D02H [C2"(C1.C1),SG(H4)]\\@
 The archive entry for this job was punched.


 CONFIDENCE: THAT QUIET ASSURED FEELING YOU HAVE
 JUST BEFORE YOU FALL FLAT ON YOUR FACE.
 Job cpu time:       0 days  0 hours  2 minutes  6.1 seconds.
 Elapsed time:       0 days  0 hours  0 minutes  8.5 seconds.
 File lengths (MBytes):  RWF=     94 Int=      0 D2E=      0 Chk=      3 Scr=      2
 Normal termination of Gaussian 16 at Wed Dec 20 01:43:53 2023.
