 Entering Gaussian System, Link 0=g16
 Initial command:
 /home/software/g16/l1.exe "/home/software/g16tmp/Gau-112442.inp" -scrdir="/home/software/g16tmp/"
 Default is to use a total of   8 processors:
                                8 via shared-memory
                                1 via Linda
 Entering Link 1 = /home/software/g16/l1.exe PID=    112443.
  
 Copyright (c) 1988-2019, Gaussian, Inc.  All Rights Reserved.
  
 This is part of the Gaussian(R) 16 program.  It is based on
 the Gaussian(R) 09 system (copyright 2009, Gaussian, Inc.),
 the Gaussian(R) 03 system (copyright 2003, Gaussian, Inc.),
 the Gaussian(R) 98 system (copyright 1998, Gaussian, Inc.),
 the Gaussian(R) 94 system (copyright 1995, Gaussian, Inc.),
 the Gaussian 92(TM) system (copyright 1992, Gaussian, Inc.),
 the Gaussian 90(TM) system (copyright 1990, Gaussian, Inc.),
 the Gaussian 88(TM) system (copyright 1988, Gaussian, Inc.),
 the Gaussian 86(TM) system (copyright 1986, Carnegie Mellon
 University), and the Gaussian 82(TM) system (copyright 1983,
 Carnegie Mellon University). Gaussian is a federally registered
 trademark of Gaussian, Inc.
  
 This software contains proprietary and confidential information,
 including trade secrets, belonging to Gaussian, Inc.
  
 This software is provided under written license and may be
 used, copied, transmitted, or stored only in accord with that
 written license.
  
 The following legend is applicable only to US Government
 contracts under FAR:
  
                    RESTRICTED RIGHTS LEGEND
  
 Use, reproduction and disclosure by the US Government is
 subject to restrictions as set forth in subparagraphs (a)
 and (c) of the Commercial Computer Software - Restricted
 Rights clause in FAR 52.227-19.
  
 Gaussian, Inc.
 340 Quinnipiac St., Bldg. 40, Wallingford CT 06492
  
  
 ---------------------------------------------------------------
 Warning -- This program may not be used in any manner that
 competes with the business of Gaussian, Inc. or will provide
 assistance to any competitor of Gaussian, Inc.  The licensee
 of this program is prohibited from giving any competitor of
 Gaussian, Inc. access to this program.  By using this program,
 the user acknowledges that Gaussian, Inc. is engaged in the
 business of creating and licensing software in the field of
 computational chemistry and represents and warrants to the
 licensee that it is not a competitor of Gaussian, Inc. and that
 it will not use this program in any manner prohibited above.
 ---------------------------------------------------------------
  

 Cite this work as:
 Gaussian 16, Revision C.01,
 M. J. Frisch, G. W. Trucks, H. B. Schlegel, G. E. Scuseria, 
 M. A. Robb, J. R. Cheeseman, G. Scalmani, V. Barone, 
 G. A. Petersson, H. Nakatsuji, X. Li, M. Caricato, A. V. Marenich, 
 J. Bloino, B. G. Janesko, R. Gomperts, B. Mennucci, H. P. Hratchian, 
 J. V. Ortiz, A. F. Izmaylov, J. L. Sonnenberg, D. Williams-Young, 
 F. Ding, F. Lipparini, F. Egidi, J. Goings, B. Peng, A. Petrone, 
 T. Henderson, D. Ranasinghe, V. G. Zakrzewski, J. Gao, N. Rega, 
 G. Zheng, W. Liang, M. Hada, M. Ehara, K. Toyota, R. Fukuda, 
 J. Hasegawa, M. Ishida, T. Nakajima, Y. Honda, O. Kitao, H. Nakai, 
 T. Vreven, K. Throssell, J. A. Montgomery, Jr., J. E. Peralta, 
 F. Ogliaro, M. J. Bearpark, J. J. Heyd, E. N. Brothers, K. N. Kudin, 
 V. N. Staroverov, T. A. Keith, R. Kobayashi, J. Normand, 
 K. Raghavachari, A. P. Rendell, J. C. Burant, S. S. Iyengar, 
 J. Tomasi, M. Cossi, J. M. Millam, M. Klene, C. Adamo, R. Cammi, 
 J. W. Ochterski, R. L. Martin, K. Morokuma, O. Farkas, 
 J. B. Foresman, and D. J. Fox, Gaussian, Inc., Wallingford CT, 2019.
 
 ******************************************
 Gaussian 16:  ES64L-G16RevC.01  3-Jul-2019
                20-Dec-2023 
 ******************************************
 %nprocshared=16
 Will use up to   16 processors via shared memory.
 %mem=4000MB
 %chk=VNWKTOKETHGBQD-UHFFFAOYSA-N.chk
 ---------------------------------
 #T CCSD(T)/cc-pVDZ symm=veryloose
 ---------------------------------
 -
 C
 -
 Symbolic Z-matrix:
 Charge =  0 Multiplicity = 1
 C                     0.        0.        0. 
 H                     0.63679   0.63679   0.63679 
 H                    -0.63679  -0.63679   0.63679 
 H                     0.63679  -0.63679  -0.63679 
 H                    -0.63679   0.63679  -0.63679 
 
                    Distance matrix (angstroms):
                    1          2          3          4          5
     1  C    0.000000
     2  H    1.102960   0.000000
     3  H    1.102960   1.801125   0.000000
     4  H    1.102960   1.801125   1.801125   0.000000
     5  H    1.102960   1.801125   1.801125   1.801125   0.000000
 Framework group  TD[O(C),4C3(H)]
 Deg. of freedom     1
                         Standard orientation:                         
 ---------------------------------------------------------------------
 Center     Atomic      Atomic             Coordinates (Angstroms)
 Number     Number       Type             X           Y           Z
 ---------------------------------------------------------------------
      1          6           0        0.000000    0.000000    0.000000
      2          1           0        0.636794    0.636794    0.636794
      3          1           0       -0.636794   -0.636794    0.636794
      4          1           0        0.636794   -0.636794   -0.636794
      5          1           0       -0.636794    0.636794   -0.636794
 ---------------------------------------------------------------------
 Rotational constants (GHZ):         154.5767401         154.5767401         154.5767401
    34 basis functions,    61 primitive gaussians,    35 cartesian basis functions
     5 alpha electrons        5 beta electrons
       nuclear repulsion energy        13.2775260242 Hartrees.
 NAtoms=    5 NActive=    5 NUniq=    2 SFac= 4.00D+00 NAtFMM=   60 NAOKFM=F Big=F
 ExpMin= 1.22D-01 ExpMax= 6.67D+03 ExpMxC= 2.28D+02 IAcc=3 IRadAn=         5 AccDes= 0.00D+00
 Harris functional with IExCor=  205 and IRadAn=       5 diagonalized for initial guess.
 HarFok:  IExCor=  205 AccDes= 0.00D+00 IRadAn=         5 IDoV= 1 UseB2=F ITyADJ=14
 ICtDFT=  3500011 ScaDFX=  1.000000  1.000000  1.000000  1.000000
 FoFCou: FMM=F IPFlag=           0 FMFlag=      100000 FMFlg1=           0
         NFxFlg=           0 DoJE=T BraDBF=F KetDBF=T FulRan=T
         wScrn=  0.000000 ICntrl=       500 IOpCl=  0 I1Cent=   200000004 NGrid=           0
         NMat0=    1 NMatS0=      1 NMatT0=    0 NMatD0=    1 NMtDS0=    0 NMtDT0=    0
 Petite list used in FoFCou.
 Initial guess orbital symmetries:
       Occupied  (A1) (A1) (T2) (T2) (T2)
       Virtual   (A1) (T2) (T2) (T2) (T2) (T2) (T2) (T2) (T2) (T2)
                 (A1) (E) (E) (A1) (T1) (T1) (T1) (T2) (T2) (T2)
                 (T2) (T2) (T2) (E) (E) (A1) (T2) (T2) (T2)
 The electronic state of the initial guess is 1-A1.
 SCF Done:  E(RHF) =  -40.1983163744     A.U. after    8 cycles
            NFock=  8  Conv=0.42D-08     -V/T= 2.0042
 ExpMin= 1.22D-01 ExpMax= 6.67D+03 ExpMxC= 2.28D+02 IAcc=3 IRadAn=         5 AccDes= 0.00D+00
 HarFok:  IExCor=  205 AccDes= 0.00D+00 IRadAn=         5 IDoV=-2 UseB2=F ITyADJ=14
 ICtDFT= 12500011 ScaDFX=  1.000000  1.000000  1.000000  1.000000
 NROrb=     33 NOA=     4 NOB=     4 NVA=    29 NVB=    29
 Semi-Direct transformation.
 ModeAB=           4 MOrb=             4 LenV=     524088162
 LASXX=        15951 LTotXX=       15951 LenRXX=       33358
 LTotAB=       17407 MaxLAS=       38016 LenRXY=           0
 NonZer=       49309 LenScr=      655360 LnRSAI=       38016
 LnScr1=      655360 LExtra=           0 Total=      1382094
 MaxDsk=          -1 SrtSym=           T ITran=            4
 JobTyp=0 Pass  1:  I=   1 to   4.
 (rs|ai) integrals will be sorted in core.
 ANorm=    0.1027165536D+01
 E2 =    -0.1618281605D+00 EUMP2 =    -0.40360144534899D+02
 CIDS: In Core Option IDoMem=           1.
 Produce multiple copies of IABC intergrals
 MP4(R+Q)=  0.26358644D-02
 E3=       -0.20363304D-01        EUMP3=      -0.40380507839D+02
 E4(DQ)=   -0.23186118D-02        UMP4(DQ)=   -0.40382826451D+02
 E4(SDQ)=  -0.28873460D-02        UMP4(SDQ)=  -0.40383395185D+02
 DE(Corr)= -0.17952821     E(Corr)=     -40.377844583    
 NORM(A)=   0.10348627D+01
 DE(Corr)= -0.18425565     E(CORR)=     -40.382572027     Delta=-4.73D-03
 NORM(A)=   0.10367772D+01
 DE(Corr)= -0.18529954     E(CORR)=     -40.383615917     Delta=-1.04D-03
 NORM(A)=   0.10370939D+01
 DE(Corr)= -0.18551690     E(CORR)=     -40.383833270     Delta=-2.17D-04
 NORM(A)=   0.10371333D+01
 DE(Corr)= -0.18553260     E(CORR)=     -40.383848971     Delta=-1.57D-05
 NORM(A)=   0.10371316D+01
 DE(Corr)= -0.18553232     E(CORR)=     -40.383848697     Delta= 2.74D-07
 NORM(A)=   0.10371318D+01
 DE(Corr)= -0.18553244     E(CORR)=     -40.383848818     Delta=-1.22D-07
 NORM(A)=   0.10371318D+01
 DE(Corr)= -0.18553246     E(CORR)=     -40.383848837     Delta=-1.90D-08
 NORM(A)=   0.10371318D+01
 Wavefunction amplitudes converged. E(Corr)=     -40.383848837    
 Largest amplitude= 2.53D-02
 Time for triples=        1.89 seconds.
 T4(CCSD)= -0.38697555D-02
 T5(CCSD)=  0.93004143D-04
 CCSD(T)= -0.40387625589D+02
 Discarding MO integrals.

 **********************************************************************

            Population analysis using the SCF Density.

 **********************************************************************

 Orbital symmetries:
       Occupied  (A1) (A1) (T2) (T2) (T2)
       Virtual   (A1) (T2) (T2) (T2) (T2) (T2) (T2) (T2) (T2) (T2)
                 (A1) (E) (E) (A1) (T1) (T1) (T1) (T2) (T2) (T2)
                 (T2) (T2) (T2) (E) (E) (A1) (T2) (T2) (T2)
 The electronic state is 1-A1.
 Alpha  occ. eigenvalues --  -11.22217  -0.93668  -0.53933  -0.53933  -0.53933
 Alpha virt. eigenvalues --    0.19136   0.27198   0.27198   0.27198   0.59023
 Alpha virt. eigenvalues --    0.59023   0.59023   0.88287   0.88287   0.88287
 Alpha virt. eigenvalues --    0.91817   1.12978   1.12978   1.25443   1.67554
 Alpha virt. eigenvalues --    1.67554   1.67554   1.88050   1.88050   1.88050
 Alpha virt. eigenvalues --    2.19880   2.19880   2.19880   2.52210   2.52210
 Alpha virt. eigenvalues --    2.71124   2.76654   2.76654   2.76654
          Condensed to atoms (all electrons):
 Mulliken charges:
               1
     1  C   -0.158725
     2  H    0.039681
     3  H    0.039681
     4  H    0.039681
     5  H    0.039681
 Sum of Mulliken charges =  -0.00000
 Mulliken charges with hydrogens summed into heavy atoms:
               1
     1  C   -0.000000
 Electronic spatial extent (au):  <R**2>=             36.1093
 Charge=              0.0000 electrons
 Dipole moment (field-independent basis, Debye):
    X=             -0.0000    Y=             -0.0000    Z=             -0.0000  Tot=              0.0000
 Unable to Open any file for archive entry.
 1\1\GINC-NODE05\SP\RCCSD(T)-FC\CC-pVDZ\C1H4\XUHJ\20-Dec-2023\0\\#T CCS
 D(T)/cc-pVDZ symm=veryloose\\C\\0,1\C,0,0.,0.,0.\H,0,0.636794,0.636794
 ,0.636794\H,0,-0.636794,-0.636794,0.636794\H,0,0.636794,-0.636794,-0.6
 36794\H,0,-0.636794,0.636794,-0.636794\\Version=ES64L-G16RevC.01\State
 =1-A1\HF=-40.1983164\MP2=-40.3601445\MP3=-40.3805078\MP4D=-40.3854623\
 MP4DQ=-40.3828265\MP4SDQ=-40.3833952\CCSD=-40.3838488\CCSD(T)=-40.3876
 256\RMSD=4.181e-09\PG=TD [O(C1),4C3(H1)]\\@
 The archive entry for this job was punched.


 MUD THROWN IS GROUND LOST -- FROM A TEA BAG
 Job cpu time:       0 days  0 hours  0 minutes 15.9 seconds.
 Elapsed time:       0 days  0 hours  0 minutes  1.2 seconds.
 File lengths (MBytes):  RWF=     29 Int=      0 D2E=      0 Chk=      2 Scr=      2
 Normal termination of Gaussian 16 at Wed Dec 20 01:38:30 2023.
 Initial command:
 /home/software/g16/l1.exe "/home/software/g16tmp/Gau-112442.inp" -scrdir="/home/software/g16tmp/"
 Default is to use a total of   8 processors:
                                8 via shared-memory
                                1 via Linda
 Entering Link 1 = /home/software/g16/l1.exe PID=    112639.
  
 Copyright (c) 1988-2019, Gaussian, Inc.  All Rights Reserved.
  
 This is part of the Gaussian(R) 16 program.  It is based on
 the Gaussian(R) 09 system (copyright 2009, Gaussian, Inc.),
 the Gaussian(R) 03 system (copyright 2003, Gaussian, Inc.),
 the Gaussian(R) 98 system (copyright 1998, Gaussian, Inc.),
 the Gaussian(R) 94 system (copyright 1995, Gaussian, Inc.),
 the Gaussian 92(TM) system (copyright 1992, Gaussian, Inc.),
 the Gaussian 90(TM) system (copyright 1990, Gaussian, Inc.),
 the Gaussian 88(TM) system (copyright 1988, Gaussian, Inc.),
 the Gaussian 86(TM) system (copyright 1986, Carnegie Mellon
 University), and the Gaussian 82(TM) system (copyright 1983,
 Carnegie Mellon University). Gaussian is a federally registered
 trademark of Gaussian, Inc.
  
 This software contains proprietary and confidential information,
 including trade secrets, belonging to Gaussian, Inc.
  
 This software is provided under written license and may be
 used, copied, transmitted, or stored only in accord with that
 written license.
  
 The following legend is applicable only to US Government
 contracts under FAR:
  
                    RESTRICTED RIGHTS LEGEND
  
 Use, reproduction and disclosure by the US Government is
 subject to restrictions as set forth in subparagraphs (a)
 and (c) of the Commercial Computer Software - Restricted
 Rights clause in FAR 52.227-19.
  
 Gaussian, Inc.
 340 Quinnipiac St., Bldg. 40, Wallingford CT 06492
  
  
 ---------------------------------------------------------------
 Warning -- This program may not be used in any manner that
 competes with the business of Gaussian, Inc. or will provide
 assistance to any competitor of Gaussian, Inc.  The licensee
 of this program is prohibited from giving any competitor of
 Gaussian, Inc. access to this program.  By using this program,
 the user acknowledges that Gaussian, Inc. is engaged in the
 business of creating and licensing software in the field of
 computational chemistry and represents and warrants to the
 licensee that it is not a competitor of Gaussian, Inc. and that
 it will not use this program in any manner prohibited above.
 ---------------------------------------------------------------
  

 Cite this work as:
 Gaussian 16, Revision C.01,
 M. J. Frisch, G. W. Trucks, H. B. Schlegel, G. E. Scuseria, 
 M. A. Robb, J. R. Cheeseman, G. Scalmani, V. Barone, 
 G. A. Petersson, H. Nakatsuji, X. Li, M. Caricato, A. V. Marenich, 
 J. Bloino, B. G. Janesko, R. Gomperts, B. Mennucci, H. P. Hratchian, 
 J. V. Ortiz, A. F. Izmaylov, J. L. Sonnenberg, D. Williams-Young, 
 F. Ding, F. Lipparini, F. Egidi, J. Goings, B. Peng, A. Petrone, 
 T. Henderson, D. Ranasinghe, V. G. Zakrzewski, J. Gao, N. Rega, 
 G. Zheng, W. Liang, M. Hada, M. Ehara, K. Toyota, R. Fukuda, 
 J. Hasegawa, M. Ishida, T. Nakajima, Y. Honda, O. Kitao, H. Nakai, 
 T. Vreven, K. Throssell, J. A. Montgomery, Jr., J. E. Peralta, 
 F. Ogliaro, M. J. Bearpark, J. J. Heyd, E. N. Brothers, K. N. Kudin, 
 V. N. Staroverov, T. A. Keith, R. Kobayashi, J. Normand, 
 K. Raghavachari, A. P. Rendell, J. C. Burant, S. S. Iyengar, 
 J. Tomasi, M. Cossi, J. M. Millam, M. Klene, C. Adamo, R. Cammi, 
 J. W. Ochterski, R. L. Martin, K. Morokuma, O. Farkas, 
 J. B. Foresman, and D. J. Fox, Gaussian, Inc., Wallingford CT, 2019.
 
 ******************************************
 Gaussian 16:  ES64L-G16RevC.01  3-Jul-2019
                20-Dec-2023 
 ******************************************
 %nprocshared=16
 Will use up to   16 processors via shared memory.
 %mem=4000MB
 %chk=VNWKTOKETHGBQD-UHFFFAOYSA-N.chk
 -----------------------------------------------
 #T CCSD(T)/cc-pVTZ symm=veryloose geom=allcheck
 -----------------------------------------------
 Structure from the checkpoint file:  "VNWKTOKETHGBQD-UHFFFAOYSA-N.chk"
 -
 C
 -
 Charge =  0 Multiplicity = 1
 Z-Matrix found in chk file.
 C,0,0.,0.,0.
 H,0,0.636794,0.636794,0.636794
 H,0,-0.636794,-0.636794,0.636794
 H,0,0.636794,-0.636794,-0.636794
 H,0,-0.636794,0.636794,-0.636794
 Recover connectivity data from disk.
                    Distance matrix (angstroms):
                    1          2          3          4          5
     1  C    0.000000
     2  H    1.102960   0.000000
     3  H    1.102960   1.801125   0.000000
     4  H    1.102960   1.801125   1.801125   0.000000
     5  H    1.102960   1.801125   1.801125   1.801125   0.000000
 Framework group  TD[O(C),4C3(H)]
 Deg. of freedom     1
                         Standard orientation:                         
 ---------------------------------------------------------------------
 Center     Atomic      Atomic             Coordinates (Angstroms)
 Number     Number       Type             X           Y           Z
 ---------------------------------------------------------------------
      1          6           0        0.000000    0.000000    0.000000
      2          1           0        0.636794    0.636794    0.636794
      3          1           0       -0.636794   -0.636794    0.636794
      4          1           0        0.636794   -0.636794   -0.636794
      5          1           0       -0.636794    0.636794   -0.636794
 ---------------------------------------------------------------------
 Rotational constants (GHZ):         154.5767401         154.5767401         154.5767401
    86 basis functions,   120 primitive gaussians,    95 cartesian basis functions
     5 alpha electrons        5 beta electrons
       nuclear repulsion energy        13.2775260242 Hartrees.
 NAtoms=    5 NActive=    5 NUniq=    2 SFac= 4.00D+00 NAtFMM=   60 NAOKFM=F Big=F
 ExpMin= 1.03D-01 ExpMax= 8.24D+03 ExpMxC= 2.81D+02 IAcc=3 IRadAn=         5 AccDes= 0.00D+00
 Harris functional with IExCor=  205 and IRadAn=       5 diagonalized for initial guess.
 HarFok:  IExCor=  205 AccDes= 0.00D+00 IRadAn=         5 IDoV= 1 UseB2=F ITyADJ=14
 ICtDFT=  3500011 ScaDFX=  1.000000  1.000000  1.000000  1.000000
 FoFCou: FMM=F IPFlag=           0 FMFlag=      100000 FMFlg1=           0
         NFxFlg=           0 DoJE=T BraDBF=F KetDBF=T FulRan=T
         wScrn=  0.000000 ICntrl=       500 IOpCl=  0 I1Cent=   200000004 NGrid=           0
         NMat0=    1 NMatS0=      1 NMatT0=    0 NMatD0=    1 NMtDS0=    0 NMtDT0=    0
 Petite list used in FoFCou.
 Initial guess orbital symmetries:
       Occupied  (A1) (A1) (T2) (T2) (T2)
       Virtual   (A1) (T2) (T2) (T2) (T2) (T2) (T2) (T2) (T2) (T2)
                 (A1) (E) (E) (A1) (T1) (T1) (T1) (T2) (T2) (T2)
                 (T2) (T2) (T2) (T2) (T2) (T2) (E) (E) (A1) (T2)
                 (T2) (T2) (A1) (T2) (T2) (T2) (E) (E) (T1) (T1)
                 (T1) (T2) (T2) (T2) (T1) (T1) (T1) (T2) (T2) (T2)
                 (E) (E) (A1) (T2) (T2) (T2) (E) (E) (T1) (T1)
                 (T1) (T2) (T2) (T2) (A1) (T2) (T2) (T2) (T2) (T2)
                 (T2) (T1) (T1) (T1) (A1) (E) (E) (T2) (T2) (T2)
                 (A1)
 The electronic state of the initial guess is 1-A1.
 SCF Done:  E(RHF) =  -40.2123367132     A.U. after    8 cycles
            NFock=  8  Conv=0.49D-08     -V/T= 2.0034
 ExpMin= 1.03D-01 ExpMax= 8.24D+03 ExpMxC= 2.81D+02 IAcc=3 IRadAn=         5 AccDes= 0.00D+00
 HarFok:  IExCor=  205 AccDes= 0.00D+00 IRadAn=         5 IDoV=-2 UseB2=F ITyADJ=14
 ICtDFT= 12500011 ScaDFX=  1.000000  1.000000  1.000000  1.000000
 NROrb=     85 NOA=     4 NOB=     4 NVA=    81 NVB=    81

 **** Warning!!: The largest alpha MO coefficient is  0.12433655D+02

 Semi-Direct transformation.
 ModeAB=           4 MOrb=             4 LenV=     523922465
 LASXX=       294099 LTotXX=      294099 LenRXX=      598546
 LTotAB=      304447 MaxLAS=      613020 LenRXY=           0
 NonZer=      892645 LenScr=     1966080 LnRSAI=      613020
 LnScr1=     1310720 LExtra=           0 Total=      4488366
 MaxDsk=          -1 SrtSym=           T ITran=            4
 JobTyp=0 Pass  1:  I=   1 to   4.
 (rs|ai) integrals will be sorted in core.
 ANorm=    0.1030454585D+01
 E2 =    -0.1985577804D+00 EUMP2 =    -0.40410894493653D+02
 CIDS: In Core Option IDoMem=           1.
 Produce multiple copies of IABC intergrals
 MP4(R+Q)=  0.39541747D-02
 E3=       -0.18331880D-01        EUMP3=      -0.40429226374D+02
 E4(DQ)=   -0.97432453D-03        UMP4(DQ)=   -0.40430200698D+02
 E4(SDQ)=  -0.19966517D-02        UMP4(SDQ)=  -0.40431223025D+02
 DE(Corr)= -0.21284441     E(Corr)=     -40.425181121    
 NORM(A)=   0.10368458D+01
 DE(Corr)= -0.21766886     E(CORR)=     -40.430005570     Delta=-4.82D-03
 NORM(A)=   0.10390949D+01
 DE(Corr)= -0.21859759     E(CORR)=     -40.430934308     Delta=-9.29D-04
 NORM(A)=   0.10394929D+01
 DE(Corr)= -0.21889031     E(CORR)=     -40.431227019     Delta=-2.93D-04
 NORM(A)=   0.10395494D+01
 DE(Corr)= -0.21891061     E(CORR)=     -40.431247324     Delta=-2.03D-05
 NORM(A)=   0.10395512D+01
 DE(Corr)= -0.21891128     E(CORR)=     -40.431247997     Delta=-6.73D-07
 NORM(A)=   0.10395501D+01
 DE(Corr)= -0.21891119     E(CORR)=     -40.431247908     Delta= 8.94D-08
 NORM(A)=   0.10395504D+01
 Wavefunction amplitudes converged. E(Corr)=     -40.431247908    
 Largest amplitude= 2.44D-02
 Time for triples=       15.29 seconds.
 T4(CCSD)= -0.65807854D-02
 T5(CCSD)=  0.20571593D-03
 CCSD(T)= -0.40437622978D+02
 Discarding MO integrals.

 **********************************************************************

            Population analysis using the SCF Density.

 **********************************************************************

 Orbital symmetries:
       Occupied  (A1) (A1) (T2) (T2) (T2)
       Virtual   (A1) (T2) (T2) (T2) (T2) (T2) (T2) (A1) (T2) (T2)
                 (T2) (E) (E) (A1) (T1) (T1) (T1) (T2) (T2) (T2)
                 (T2) (T2) (T2) (T2) (T2) (T2) (E) (E) (A1) (T2)
                 (T2) (T2) (A1) (T2) (T2) (T2) (T1) (T1) (T1) (E)
                 (E) (T2) (T2) (T2) (T1) (T1) (T1) (T2) (T2) (T2)
                 (E) (E) (A1) (T2) (T2) (T2) (E) (E) (T1) (T1)
                 (T1) (T2) (T2) (T2) (A1) (T2) (T2) (T2) (T2) (T2)
                 (T2) (T1) (T1) (T1) (A1) (E) (E) (T2) (T2) (T2)
                 (A1)
 The electronic state is 1-A1.
 Alpha  occ. eigenvalues --  -11.21372  -0.93710  -0.54122  -0.54122  -0.54122
 Alpha virt. eigenvalues --    0.14249   0.22799   0.22799   0.22799   0.36516
 Alpha virt. eigenvalues --    0.36516   0.36516   0.63565   0.64195   0.64195
 Alpha virt. eigenvalues --    0.64195   0.68179   0.68179   0.75113   1.06833
 Alpha virt. eigenvalues --    1.06833   1.06833   1.15816   1.15816   1.15816
 Alpha virt. eigenvalues --    1.31491   1.31491   1.31491   1.52877   1.52877
 Alpha virt. eigenvalues --    1.52877   1.59214   1.59214   1.78295   2.43185
 Alpha virt. eigenvalues --    2.43185   2.43185   2.57348   2.98375   2.98375
 Alpha virt. eigenvalues --    2.98375   3.12838   3.12838   3.12838   3.14115
 Alpha virt. eigenvalues --    3.14115   3.30203   3.30203   3.30203   3.60798
 Alpha virt. eigenvalues --    3.60798   3.60798   3.71805   3.71805   3.71805
 Alpha virt. eigenvalues --    3.79226   3.79226   3.84431   4.08979   4.08979
 Alpha virt. eigenvalues --    4.08979   4.11566   4.11566   4.36251   4.36251
 Alpha virt. eigenvalues --    4.36251   4.50030   4.50030   4.50030   4.78984
 Alpha virt. eigenvalues --    5.01326   5.01326   5.01326   5.46029   5.46029
 Alpha virt. eigenvalues --    5.46029   5.47388   5.47388   5.47388   5.51759
 Alpha virt. eigenvalues --    5.58008   5.58008   6.18858   6.18858   6.18858
 Alpha virt. eigenvalues --   14.21263
          Condensed to atoms (all electrons):
 Mulliken charges:
               1
     1  C   -0.358749
     2  H    0.089687
     3  H    0.089687
     4  H    0.089687
     5  H    0.089687
 Sum of Mulliken charges =  -0.00000
 Mulliken charges with hydrogens summed into heavy atoms:
               1
     1  C   -0.000000
 Electronic spatial extent (au):  <R**2>=             36.2697
 Charge=             -0.0000 electrons
 Dipole moment (field-independent basis, Debye):
    X=             -0.0000    Y=             -0.0000    Z=              0.0000  Tot=              0.0000
 Unable to Open any file for archive entry.
 1\1\GINC-NODE05\SP\RCCSD(T)-FC\CC-pVTZ\C1H4\XUHJ\20-Dec-2023\0\\#T CCS
 D(T)/cc-pVTZ symm=veryloose geom=allcheck\\C\\0,1\C,0,0.,0.,0.\H,0,0.6
 36794,0.636794,0.636794\H,0,-0.636794,-0.636794,0.636794\H,0,0.636794,
 -0.636794,-0.636794\H,0,-0.636794,0.636794,-0.636794\\Version=ES64L-G1
 6RevC.01\State=1-A1\HF=-40.2123367\MP2=-40.4108945\MP3=-40.4292264\MP4
 D=-40.4341549\MP4DQ=-40.4302007\MP4SDQ=-40.431223\CCSD=-40.4312479\CCS
 D(T)=-40.437623\RMSD=4.870e-09\PG=TD [O(C1),4C3(H1)]\\@
 The archive entry for this job was punched.


 TWO ROADS DIVERGED IN A WOOD, AND I--
 I TOOK THE ONE LESS TRAVELED BY,
 AND THAT HAS MADE ALL THE DIFFERENCE.

                       -- ROBERT FROST
 Job cpu time:       0 days  0 hours  0 minutes 39.7 seconds.
 Elapsed time:       0 days  0 hours  0 minutes  2.7 seconds.
 File lengths (MBytes):  RWF=     55 Int=      0 D2E=      0 Chk=      2 Scr=      2
 Normal termination of Gaussian 16 at Wed Dec 20 01:38:33 2023.
