 Entering Gaussian System, Link 0=g16
 Initial command:
 /opt/g16/l1.exe "/tmp/Gau-2499717.inp" -scrdir="/tmp/"
 Entering Link 1 = /opt/g16/l1.exe PID=   2499719.
  
 Copyright (c) 1988-2019, Gaussian, Inc.  All Rights Reserved.
  
 This is part of the Gaussian(R) 16 program.  It is based on
 the Gaussian(R) 09 system (copyright 2009, Gaussian, Inc.),
 the Gaussian(R) 03 system (copyright 2003, Gaussian, Inc.),
 the Gaussian(R) 98 system (copyright 1998, Gaussian, Inc.),
 the Gaussian(R) 94 system (copyright 1995, Gaussian, Inc.),
 the Gaussian 92(TM) system (copyright 1992, Gaussian, Inc.),
 the Gaussian 90(TM) system (copyright 1990, Gaussian, Inc.),
 the Gaussian 88(TM) system (copyright 1988, Gaussian, Inc.),
 the Gaussian 86(TM) system (copyright 1986, Carnegie Mellon
 University), and the Gaussian 82(TM) system (copyright 1983,
 Carnegie Mellon University). Gaussian is a federally registered
 trademark of Gaussian, Inc.
  
 This software contains proprietary and confidential information,
 including trade secrets, belonging to Gaussian, Inc.
  
 This software is provided under written license and may be
 used, copied, transmitted, or stored only in accord with that
 written license.
  
 The following legend is applicable only to US Government
 contracts under FAR:
  
                    RESTRICTED RIGHTS LEGEND
  
 Use, reproduction and disclosure by the US Government is
 subject to restrictions as set forth in subparagraphs (a)
 and (c) of the Commercial Computer Software - Restricted
 Rights clause in FAR 52.227-19.
  
 Gaussian, Inc.
 340 Quinnipiac St., Bldg. 40, Wallingford CT 06492
  
  
 ---------------------------------------------------------------
 Warning -- This program may not be used in any manner that
 competes with the business of Gaussian, Inc. or will provide
 assistance to any competitor of Gaussian, Inc.  The licensee
 of this program is prohibited from giving any competitor of
 Gaussian, Inc. access to this program.  By using this program,
 the user acknowledges that Gaussian, Inc. is engaged in the
 business of creating and licensing software in the field of
 computational chemistry and represents and warrants to the
 licensee that it is not a competitor of Gaussian, Inc. and that
 it will not use this program in any manner prohibited above.
 ---------------------------------------------------------------
  

 Cite this work as:
 Gaussian 16, Revision C.01,
 M. J. Frisch, G. W. Trucks, H. B. Schlegel, G. E. Scuseria, 
 M. A. Robb, J. R. Cheeseman, G. Scalmani, V. Barone, 
 G. A. Petersson, H. Nakatsuji, X. Li, M. Caricato, A. V. Marenich, 
 J. Bloino, B. G. Janesko, R. Gomperts, B. Mennucci, H. P. Hratchian, 
 J. V. Ortiz, A. F. Izmaylov, J. L. Sonnenberg, D. Williams-Young, 
 F. Ding, F. Lipparini, F. Egidi, J. Goings, B. Peng, A. Petrone, 
 T. Henderson, D. Ranasinghe, V. G. Zakrzewski, J. Gao, N. Rega, 
 G. Zheng, W. Liang, M. Hada, M. Ehara, K. Toyota, R. Fukuda, 
 J. Hasegawa, M. Ishida, T. Nakajima, Y. Honda, O. Kitao, H. Nakai, 
 T. Vreven, K. Throssell, J. A. Montgomery, Jr., J. E. Peralta, 
 F. Ogliaro, M. J. Bearpark, J. J. Heyd, E. N. Brothers, K. N. Kudin, 
 V. N. Staroverov, T. A. Keith, R. Kobayashi, J. Normand, 
 K. Raghavachari, A. P. Rendell, J. C. Burant, S. S. Iyengar, 
 J. Tomasi, M. Cossi, J. M. Millam, M. Klene, C. Adamo, R. Cammi, 
 J. W. Ochterski, R. L. Martin, K. Morokuma, O. Farkas, 
 J. B. Foresman, and D. J. Fox, Gaussian, Inc., Wallingford CT, 2019.
 
 ******************************************
 Gaussian 16:  ES64L-G16RevC.01  3-Jul-2019
                11-Oct-2024 
 ******************************************
 %nprocshared=8
 Will use up to    8 processors via shared memory.
 %mem=10400MB
 -----------------------------
 #T MP2/cc-pVDZ symm=veryloose
 -----------------------------
 ----------------------------------------
 c1ccc2cc3cc4c(ccc5c6ccccc6ccc45)cc3cc2c1
 ----------------------------------------
 Symbolic Z-matrix:
 Charge =  0 Multiplicity = 1
 C                    -1.39535  -6.9714    0. 
 C                     0.0352   -6.95757   0. 
 C                     0.71836  -5.76915   0. 
 C                     0.02172  -4.51629   0. 
 C                     0.69183  -3.29038   0. 
 C                    -0.00182  -2.06441   0. 
 C                     0.67308  -0.81882   0. 
 C                     0.        0.39815   0. 
 C                    -1.45058   0.37267   0. 
 C                    -2.16058   1.62139   0. 
 C                    -1.50333   2.81218   0. 
 C                    -0.06283   2.89115   0. 
 C                     0.6166    4.17039   0. 
 C                    -0.07007   5.41493   0. 
 C                     0.61278   6.61701   0. 
 C                     2.02553   6.64011   0. 
 C                     2.72516   5.45041   0. 
 C                     2.04748   4.20395   0. 
 C                     2.76656   2.97389   0. 
 C                     2.11191   1.77147   0. 
 C                     0.6861    1.69207   0. 
 C                    -2.12963  -0.84044   0. 
 C                    -1.45025  -2.07977   0. 
 C                    -2.12259  -3.31749   0. 
 C                    -1.42945  -4.53029   0. 
 C                    -2.10161  -5.7966    0. 
 H                    -1.92302  -7.92976   0. 
 H                     0.58139  -7.90548   0. 
 H                     1.81273  -5.75602   0. 
 H                     1.78657  -3.28043   0. 
 H                     1.7637   -0.84974   0. 
 H                    -3.2544    1.59525   0. 
 H                    -2.08918   3.7315    0. 
 H                    -1.16041   5.43766   0. 
 H                     0.05331   7.55714   0. 
 H                     2.55804   7.59564   0. 
 H                     3.81961   5.44954   0. 
 H                     3.8603    3.00493   0. 
 H                     2.70345   0.85543   0. 
 H                    -3.22417  -0.83728   0. 
 H                    -3.21721  -3.32655   0. 
 H                    -3.19601  -5.80477   0. 
 
                    Distance matrix (angstroms):
                    1          2          3          4          5
     1  C    0.000000
     2  C    1.430617   0.000000
     3  C    2.431705   1.370790   0.000000
     4  C    2.834728   2.441325   1.433516   0.000000
     5  C    4.231575   3.725514   2.478906   1.397100   0.000000
     6  C    5.101029   4.893305   3.774089   2.451990   1.408606
     7  C    6.490963   6.171802   4.950530   3.754396   2.471630
     8  C    7.500488   7.355810   6.208995   4.914486   3.752856
     9  C    7.344281   7.479308   6.513544   5.105838   4.243574
    10  C    8.626800   8.855512   7.931478   6.514101   5.679945
    11  C    9.784180   9.890158   8.864261   7.485468   6.485372
    12  C    9.952157   9.849207   8.695454   7.407914   6.227424
    13  C   11.321989  11.143141   9.940057   8.707020   7.461151
    14  C   12.457027  12.372950  11.211831   9.931638   8.738589
    15  C   13.735995  13.586868  12.386609  11.148976   9.907710
    16  C   14.034805  13.742580  12.477918  11.334924  10.019656
    17  C   13.087394  12.696213  11.397614  10.326835   8.974174
    18  C   11.693658  11.341470  10.061276   8.952444   7.615960
    19  C   10.781018  10.300211   8.979747   7.977274   6.598912
    20  C    9.420121   8.972676   7.668303   6.626067   5.257278
    21  C    8.910006   8.674101   7.461288   6.243805   4.982457
    22  C    6.174779   6.488902   5.692384   4.259128   3.736695
    23  C    4.891943   5.098978   4.279534   2.846635   2.460512
    24  C    3.725580   4.231581   3.752551   2.456663   2.814557
    25  C    2.441347   2.834944   2.479490   1.451244   2.457079
    26  C    1.370755   2.431837   2.820107   2.479465   3.752926
    27  H    1.094023   2.186273   3.412500   3.928590   5.325530
    28  H    2.186318   1.094005   2.140722   3.435095   4.616420
    29  H    3.430585   2.145538   1.094448   2.178225   2.708467
    30  H    4.873181   4.072921   2.708281   2.154538   1.094782
    31  H    6.888704   6.347698   5.029239   4.059310   2.665634
    32  H    8.766043   9.163634   8.367622   6.934247   6.280296
    33  H   10.725363  10.898127   9.906789   8.513624   7.552536
    34  H   12.411290  12.452767  11.363204  10.023899   8.922422
    35  H   14.600590  14.514728  13.342874  12.073470  10.866302
    36  H   15.093969  14.770262  13.490806  12.374634  11.044824
    37  H   13.471287  12.971438  11.639444  10.664972   9.282738
    38  H   11.276043  10.671596   9.319672   8.444137   7.047709
    39  H    8.835120   8.256058   6.915600   6.003909   4.608070
    40  H    6.400939   6.934082   6.314021   4.906210   4.620910
    41  H    4.074816   4.874680   4.631953   3.450527   3.909208
    42  H    2.145558   3.430699   3.914536   3.466123   4.630064
                    6          7          8          9         10
     6  C    0.000000
     7  C    1.416676   0.000000
     8  C    2.462562   1.390706   0.000000
     9  C    2.835184   2.435076   1.450808   0.000000
    10  C    4.271457   3.739551   2.482822   1.436451   0.000000
    11  C    5.102516   4.233315   2.843861   2.440081   1.360129
    12  C    4.955930   3.782252   2.493785   2.875512   2.452102
    13  C    6.265393   4.989533   3.822298   4.323876   3.769626
    14  C    7.479648   6.277893   5.017265   5.227826   4.331410
    15  C    8.703149   7.436080   6.248977   6.576417   5.713818
    16  C    8.937498   7.580559   6.562382   7.166883   6.535370
    17  C    7.994302   6.596536   5.740362   6.574208   6.207394
    18  C    6.594847   5.207425   4.321609   5.187986   4.937346
    19  C    5.748775   4.332132   3.779985   4.954860   5.109394
    20  C    4.379707   2.963084   2.519162   3.827273   4.275124
    21  C    3.818950   2.510929   1.464569   2.511224   2.847556
    22  C    2.454724   2.802790   2.463621   1.390229   2.462024
    23  C    1.448510   2.469514   2.871117   2.452438   3.768705
    24  C    2.463307   3.749547   4.279182   3.750852   4.939029
    25  C    2.849336   4.265635   5.131560   4.903010   6.194979
    26  C    4.282331   5.698872   6.541537   6.203525   7.418225
    27  H    6.171979   7.570014   8.547052   8.315859   9.554103
    28  H    5.870116   7.087251   8.323962   8.523891   9.913611
    29  H    4.113469   5.067026   6.415596   6.943351   8.379346
    30  H    2.162650   2.701734   4.089474   4.881015   6.293474
    31  H    2.143003   1.091056   2.160524   3.438879   4.637501
    32  H    4.896154   4.610076   3.467585   2.179091   1.094135
    33  H    6.160321   5.323105   3.933934   3.418991   2.111311
    34  H    7.591010   6.519610   5.171386   5.073298   3.945157
    35  H    9.621710   8.398865   7.159190   7.340187   6.335175
    36  H    9.993467   8.623006   7.638544   8.260770   7.612947
    37  H    8.429873   7.013775   6.332924   7.317755   7.100516
    38  H    6.372931   4.977905   4.658031   5.927422   6.177797
    39  H    3.980440   2.631636   2.741845   4.181986   4.923962
    40  H    3.448098   3.897293   3.452764   2.146998   2.678864
    41  H    3.454229   4.628498   4.921770   4.099413   5.059505
    42  H    4.918654   6.311063   6.977875   6.419292   7.498001
                   11         12         13         14         15
    11  C    0.000000
    12  C    1.442662   0.000000
    13  C    2.517702   1.448479   0.000000
    14  C    2.971281   2.523793   1.421406   0.000000
    15  C    4.353694   3.786626   2.446626   1.382495   0.000000
    16  C    5.206336   4.291390   2.843349   2.427477   1.412943
    17  C    4.984009   3.784535   2.466672   2.795457   2.413114
    18  C    3.813832   2.485336   1.431280   2.439368   2.807355
    19  C    4.272950   2.830600   2.460474   3.742343   4.232149
    20  C    3.762057   2.446056   2.826798   4.246865   5.072149
    21  C    2.459323   1.413748   2.479292   3.798877   4.925487
    22  C    3.705925   4.265720   5.714031   6.585695   7.945713
    23  C    4.892237   5.160901   6.583032   7.620718   8.938124
    24  C    6.160875   6.541389   7.973174   8.970394  10.304203
    25  C    7.342847   7.546217   8.938020  10.037696  11.332834
    26  C    8.629545   8.923761  10.330998  11.394098  12.706913
    27  H   10.750135  10.979628  12.363786  13.472715  14.766136
    28  H   10.918533  10.815830  12.075922  13.336331  14.522528
    29  H    9.187514   8.848235   9.998220  11.328509  12.431086
    30  H    6.924115   6.442718   7.542117   8.891365   9.966801
    31  H    4.907460   4.162986   5.149521   6.527543   7.554936
    32  H    2.132411   3.444627   4.649299   4.972917   6.338233
    33  H    1.090116   2.193687   2.741140   2.628826   3.953071
    34  H    2.647782   2.772983   2.182600   1.090573   2.129567
    35  H    4.993776   4.667443   3.433277   2.145765   1.094005
    36  H    6.275045   5.385278   3.937198   3.415038   2.177558
    37  H    5.940484   4.649595   3.448987   3.889838   3.412736
    38  H    5.367097   3.924786   3.446725   4.610417   4.857318
    39  H    4.639597   3.434595   3.917130   5.336803   6.129173
    40  H    4.034833   4.888276   6.310965   7.002747   8.383835
    41  H    6.373491   6.972073   8.420341   9.290741  10.655665
    42  H    8.781631   9.243147  10.678942  11.647023  12.992597
                   16         17         18         19         20
    16  C    0.000000
    17  C    1.380174   0.000000
    18  C    2.436260   1.418763   0.000000
    19  C    3.740359   2.476859   1.424820   0.000000
    20  C    4.869410   3.729698   2.433336   1.369081   0.000000
    21  C    5.126128   4.275842   2.857080   2.443637   1.428019
    22  C    8.557103   7.946300   6.549363   6.206591   4.981239
    23  C    9.387086   8.610316   7.191611   6.581866   5.246049
    24  C   10.787067  10.018817   8.600095   7.967766   6.620313
    25  C   11.692515  10.810881   9.400858   8.597635   7.228657
    26  C   13.103630  12.238988  10.827096  10.030982   8.661953
    27  H   15.095437  14.164546  12.766825  11.869362  10.506879
    28  H   14.617109  13.526844  12.197862  11.096656   9.797239
    29  H   12.397963  11.243514   9.962742   8.781870   7.533436
    30  H    9.923420   8.781140   7.488927   6.330633   5.062363
    31  H    7.494432   6.373092   5.061658   3.952965   2.644242
    32  H    7.302627   7.114588   5.908918   6.176779   5.369205
    33  H    5.038937   5.111993   4.163554   4.914481   4.635823
    34  H    3.405306   3.885589   3.436951   4.635865   4.914172
    35  H    2.174992   3.402513   3.901360   5.326150   6.140998
    36  H    1.093889   2.151729   3.429897   4.626444   5.841229
    37  H    2.153180   1.094452   2.166083   2.690305   4.055173
    38  H    4.071968   2.696089   2.173468   1.094186   2.139697
    39  H    5.824274   4.595031   3.412171   2.119407   1.090433
    40  H    9.136237   8.656186   7.294134   7.100275   5.939645
    41  H   11.261468  10.599370   9.188330   8.689132   7.374911
    42  H   13.495913  12.717675  11.299061  10.612124   9.250594
                   21         22         23         24         25
    21  C    0.000000
    22  C    3.787077   0.000000
    23  C    4.334832   1.413327   0.000000
    24  C    5.743212   2.477063   1.408546   0.000000
    25  C    6.572168   3.755699   2.450614   1.396900   0.000000
    26  C    7.990715   4.956240   3.773475   2.479197   1.433641
    27  H    9.969309   7.092329   5.869063   4.616582   3.435108
    28  H    9.598124   7.567328   6.169806   5.325520   3.928789
    29  H    7.532822   6.301206   4.915477   4.629602   3.466148
    30  H    5.092817   4.614129   3.452333   3.909339   3.450359
    31  H    2.760802   3.893336   3.441280   4.603586   4.872642
    32  H    3.941691   2.682845   4.093979   5.041425   6.391607
    33  H    3.444043   4.572112   5.846280   7.049065   8.288086
    34  H    4.176012   6.352476   7.523016   8.807868   9.971587
    35  H    5.899109   8.676670   9.753499  11.090186  12.178042
    36  H    6.193241   9.650991  10.472815  11.874539  12.764728
    37  H    4.892589   8.657787   9.190315  10.591061  11.276068
    38  H    3.434990   7.118019   7.352290   8.704487   9.206583
    39  H    2.183951   5.121969   5.086113   6.379958   6.788728
    40  H    4.657024   1.094547   2.165771   2.713838   4.106013
    41  H    6.357859   2.713590   2.162545   1.094652   2.155240
    42  H    8.442361   5.077575   4.113798   2.709021   2.178307
                   26         27         28         29         30
    26  C    0.000000
    27  H    2.140621   0.000000
    28  H    3.412604   2.504529   0.000000
    29  H    3.914552   4.322150   2.477171   0.000000
    30  H    4.631314   5.947886   4.779496   2.475733   0.000000
    31  H    6.277895   7.982386   7.154110   4.906525   2.430793
    32  H    7.481195   9.617600  10.245832   8.928436   7.013100
    33  H    9.528102  11.662436  11.939478  10.258553   8.011773
    34  H   11.273621  13.389157  13.456352  11.581805   9.202708
    35  H   13.526497  15.612494  15.471640  13.428923  10.975297
    36  H   14.179716  16.159139  15.626638  13.372446  10.903392
    37  H   12.709700  14.559650  13.742004  11.383857   8.963570
    38  H   10.630682  12.369896  11.392473   8.997051   6.618621
    39  H    8.205973   9.928930   9.014246   6.671180   4.236267
    40  H    5.084778   7.210838   8.027561   7.040200   5.574631
    41  H    2.710295   4.781677   5.949449   5.585931   5.003991
    42  H    1.094432   2.477108   4.322237   5.008980   5.585556
                   31         32         33         34         35
    31  H    0.000000
    32  H    5.582046   0.000000
    33  H    5.986015   2.433373   0.000000
    34  H    6.934111   4.375954   1.942581   0.000000
    35  H    8.579112   6.818005   4.384729   2.442399   0.000000
    36  H    8.482655   8.353992   6.043860   4.299272   2.505026
    37  H    6.626293   8.055879   6.153490   4.980034   4.315899
    38  H    4.387973   7.253014   5.993681   5.579046   5.934290
    39  H    1.946981   6.003602   5.589365   5.993854   7.206678
    40  H    4.987883   2.432715   4.707647   6.605608   9.011564
    41  H    5.562728   4.921935   7.147618   9.002324  11.364464
    42  H    7.010776   7.400246   9.600284  11.425236  13.751322
                   36         37         38         39         40
    36  H    0.000000
    37  H    2.489434   0.000000
    38  H    4.771838   2.444945   0.000000
    39  H    6.741778   4.727758   2.441045   0.000000
    40  H   10.224877   9.441344   8.059306   6.164568   0.000000
    41  H   12.355065  11.248845   9.496253   7.248657   2.489277
    42  H   14.583554  13.261917  11.287271   8.897293   4.967569
                   41         42
    41  H    0.000000
    42  H    2.478313   0.000000
 Framework group  CS[SG(C26H16)]
 Deg. of freedom    81
                         Standard orientation:                         
 ---------------------------------------------------------------------
 Center     Atomic      Atomic             Coordinates (Angstroms)
 Number     Number       Type             X           Y           Z
 ---------------------------------------------------------------------
      1          6           0        1.395347   -6.971402    0.000000
      2          6           0       -0.035203   -6.957574    0.000000
      3          6           0       -0.718363   -5.769147    0.000000
      4          6           0       -0.021722   -4.516286    0.000000
      5          6           0       -0.691834   -3.290383    0.000000
      6          6           0        0.001822   -2.064409    0.000000
      7          6           0       -0.673077   -0.818824    0.000000
      8          6           0       -0.000000    0.398152   -0.000000
      9          6           0        1.450584    0.372671   -0.000000
     10          6           0        2.160576    1.621392   -0.000000
     11          6           0        1.503331    2.812182   -0.000000
     12          6           0        0.062832    2.891145   -0.000000
     13          6           0       -0.616598    4.170389   -0.000000
     14          6           0        0.070074    5.414928   -0.000000
     15          6           0       -0.612777    6.617012   -0.000000
     16          6           0       -2.025531    6.640113   -0.000000
     17          6           0       -2.725158    5.450406   -0.000000
     18          6           0       -2.047484    4.203952   -0.000000
     19          6           0       -2.766558    2.973893   -0.000000
     20          6           0       -2.111913    1.771469   -0.000000
     21          6           0       -0.686103    1.692071   -0.000000
     22          6           0        2.129630   -0.840438    0.000000
     23          6           0        1.450251   -2.079767    0.000000
     24          6           0        2.122592   -3.317491    0.000000
     25          6           0        1.429454   -4.530293    0.000000
     26          6           0        2.101610   -5.796599    0.000000
     27          1           0        1.923023   -7.929757    0.000000
     28          1           0       -0.581388   -7.905482    0.000000
     29          1           0       -1.812732   -5.756024    0.000000
     30          1           0       -1.786571   -3.280429    0.000000
     31          1           0       -1.763695   -0.849744    0.000000
     32          1           0        3.254399    1.595245   -0.000000
     33          1           0        2.089177    3.731495   -0.000000
     34          1           0        1.160410    5.437664   -0.000000
     35          1           0       -0.053312    7.557143   -0.000000
     36          1           0       -2.558042    7.595636   -0.000000
     37          1           0       -3.819610    5.449539   -0.000000
     38          1           0       -3.860304    3.004933   -0.000000
     39          1           0       -2.703445    0.855426   -0.000000
     40          1           0        3.224172   -0.837282    0.000000
     41          1           0        3.217207   -3.326549    0.000000
     42          1           0        3.196011   -5.804771    0.000000
 ---------------------------------------------------------------------
 Rotational constants (GHZ):           0.8258924           0.0834953           0.0758292
   444 basis functions,   970 primitive gaussians,   470 cartesian basis functions
    86 alpha electrons       86 beta electrons
       nuclear repulsion energy      1931.6320008335 Hartrees.
 NAtoms=   42 NActive=   42 NUniq=   42 SFac= 1.00D+00 NAtFMM=   60 NAOKFM=F Big=F
 ExpMin= 1.22D-01 ExpMax= 6.67D+03 ExpMxC= 2.28D+02 IAcc=3 IRadAn=         5 AccDes= 0.00D+00
 Harris functional with IExCor=  205 and IRadAn=       5 diagonalized for initial guess.
 HarFok:  IExCor=  205 AccDes= 0.00D+00 IRadAn=         5 IDoV= 1 UseB2=F ITyADJ=14
 ICtDFT=  3500011 ScaDFX=  1.000000  1.000000  1.000000  1.000000
 FoFCou: FMM=F IPFlag=           0 FMFlag=      100000 FMFlg1=           0
         NFxFlg=           0 DoJE=T BraDBF=F KetDBF=T FulRan=T
         wScrn=  0.000000 ICntrl=       500 IOpCl=  0 I1Cent=   200000004 NGrid=           0
         NMat0=    1 NMatS0=      1 NMatT0=    0 NMatD0=    1 NMtDS0=    0 NMtDT0=    0
 Petite list used in FoFCou.
 Initial guess orbital symmetries:
       Occupied  (A') (A') (A') (A') (A') (A') (A') (A') (A') (A')
                 (A') (A') (A') (A') (A') (A') (A') (A') (A') (A')
                 (A') (A') (A') (A') (A') (A') (A') (A') (A') (A')
                 (A') (A') (A') (A') (A') (A') (A') (A') (A') (A')
                 (A') (A') (A') (A') (A') (A') (A') (A') (A') (A')
                 (A') (A') (A') (A') (A') (A') (A') (A') (A') (A')
                 (A') (A') (A') (A') (A') (A") (A') (A") (A') (A')
                 (A") (A') (A') (A') (A") (A') (A') (A") (A") (A")
                 (A") (A") (A") (A") (A") (A")
       Virtual   (A") (A") (A") (A") (A") (A") (A") (A") (A") (A")
                 (A') (A') (A') (A") (A') (A') (A') (A') (A') (A")
                 (A') (A') (A') (A') (A') (A") (A') (A') (A') (A')
                 (A') (A') (A') (A') (A') (A') (A') (A') (A') (A')
                 (A') (A') (A') (A') (A') (A') (A') (A') (A') (A')
                 (A') (A') (A') (A') (A') (A") (A') (A") (A') (A')
                 (A") (A') (A") (A') (A') (A') (A') (A") (A') (A")
                 (A') (A') (A') (A') (A') (A') (A") (A') (A') (A")
                 (A') (A') (A') (A') (A') (A') (A") (A") (A') (A')
                 (A") (A') (A") (A") (A') (A") (A") (A") (A") (A')
                 (A') (A') (A") (A') (A') (A') (A') (A") (A') (A')
                 (A") (A') (A') (A") (A') (A") (A') (A') (A') (A")
                 (A') (A") (A") (A") (A") (A') (A") (A') (A") (A')
                 (A') (A") (A') (A') (A') (A') (A') (A") (A") (A')
                 (A') (A') (A") (A') (A') (A") (A') (A') (A") (A')
                 (A") (A') (A") (A") (A") (A') (A") (A") (A') (A')
                 (A") (A') (A') (A") (A") (A') (A") (A') (A') (A")
                 (A') (A') (A") (A') (A') (A') (A') (A') (A') (A')
                 (A') (A') (A') (A') (A") (A') (A') (A") (A') (A")
                 (A') (A') (A") (A") (A') (A') (A") (A') (A') (A')
                 (A") (A') (A') (A') (A") (A') (A') (A") (A') (A')
                 (A") (A") (A') (A") (A') (A') (A") (A') (A') (A')
                 (A') (A') (A') (A") (A') (A') (A') (A") (A') (A')
                 (A') (A") (A') (A") (A') (A") (A') (A") (A") (A")
                 (A') (A") (A') (A") (A') (A") (A') (A') (A") (A")
                 (A') (A') (A") (A') (A') (A') (A') (A") (A') (A')
                 (A') (A') (A") (A') (A") (A') (A") (A') (A') (A")
                 (A') (A') (A") (A') (A') (A') (A') (A") (A') (A')
                 (A") (A') (A') (A") (A') (A") (A') (A') (A') (A')
                 (A") (A') (A") (A') (A') (A') (A") (A") (A') (A')
                 (A') (A') (A') (A") (A') (A") (A') (A') (A') (A')
                 (A') (A') (A") (A') (A") (A') (A') (A") (A') (A')
                 (A") (A') (A') (A') (A') (A') (A') (A') (A') (A')
                 (A') (A') (A') (A') (A') (A') (A') (A') (A') (A')
                 (A') (A') (A') (A') (A') (A') (A') (A') (A') (A')
                 (A') (A') (A') (A') (A') (A') (A') (A')
 The electronic state of the initial guess is 1-A'.
 Integral accuracy reduced to 1.0D-05 until final iterations.
 Initial convergence to 1.0D-05 achieved.  Increase integral accuracy.
 SCF Done:  E(RHF) =  -994.013031446     A.U. after   17 cycles
            NFock= 17  Conv=0.39D-08     -V/T= 2.0012
 ExpMin= 1.22D-01 ExpMax= 6.67D+03 ExpMxC= 2.28D+02 IAcc=3 IRadAn=         5 AccDes= 0.00D+00
 HarFok:  IExCor=  205 AccDes= 0.00D+00 IRadAn=         5 IDoV=-2 UseB2=F ITyADJ=14
 ICtDFT= 12500011 ScaDFX=  1.000000  1.000000  1.000000  1.000000
 GSVD:  LWork=        -884 too small for GESVD, short by        3770 words or        3770 for optimal perf.
 NROrb=    418 NOA=    60 NOB=    60 NVA=   358 NVB=   358

 **** Warning!!: The largest alpha MO coefficient is  0.16274214D+02

 Estimated scratch disk usage=  4855987128 words.
 Actual    scratch disk usage=  3844656056 words.
 ANorm=    0.1523095200D+01
 E2 =    -0.3363022893D+01 EUMP2 =    -0.99737605433893D+03

 **********************************************************************

            Population analysis using the SCF Density.

 **********************************************************************

 Orbital symmetries:
       Occupied  (A') (A') (A') (A') (A') (A') (A') (A') (A') (A')
                 (A') (A') (A') (A') (A') (A') (A') (A') (A') (A')
                 (A') (A') (A') (A') (A') (A') (A') (A') (A') (A')
                 (A') (A') (A') (A') (A') (A') (A') (A') (A') (A')
                 (A') (A') (A') (A') (A') (A') (A') (A') (A') (A')
                 (A') (A') (A') (A') (A') (A') (A') (A') (A') (A')
                 (A') (A') (A') (A') (A') (A") (A') (A") (A') (A')
                 (A") (A') (A') (A') (A') (A") (A') (A") (A") (A")
                 (A") (A") (A") (A") (A") (A")
       Virtual   (A") (A") (A") (A") (A") (A") (A') (A') (A') (A")
                 (A') (A') (A") (A') (A') (A') (A') (A') (A') (A")
                 (A') (A') (A") (A') (A') (A') (A") (A') (A') (A")
                 (A') (A') (A') (A') (A") (A') (A') (A') (A') (A')
                 (A') (A') (A') (A') (A') (A') (A') (A') (A') (A')
                 (A') (A') (A') (A') (A") (A') (A') (A') (A") (A')
                 (A') (A") (A') (A") (A') (A') (A") (A") (A') (A')
                 (A') (A") (A') (A") (A') (A') (A') (A') (A') (A')
                 (A') (A") (A') (A') (A') (A") (A") (A') (A') (A')
                 (A") (A') (A") (A') (A") (A") (A") (A') (A") (A')
                 (A') (A") (A') (A') (A") (A') (A") (A') (A') (A")
                 (A') (A') (A') (A') (A") (A') (A') (A") (A') (A')
                 (A") (A") (A') (A") (A") (A") (A') (A") (A') (A')
                 (A") (A') (A') (A') (A') (A') (A') (A') (A") (A")
                 (A') (A') (A') (A') (A') (A") (A') (A") (A') (A")
                 (A') (A") (A") (A') (A") (A') (A") (A') (A") (A')
                 (A") (A') (A") (A') (A") (A') (A') (A") (A') (A")
                 (A') (A") (A') (A") (A') (A') (A') (A') (A') (A')
                 (A') (A') (A') (A') (A') (A") (A') (A') (A") (A')
                 (A") (A') (A') (A") (A") (A') (A") (A') (A') (A")
                 (A') (A') (A") (A') (A') (A') (A") (A') (A") (A")
                 (A') (A") (A') (A") (A') (A') (A') (A') (A') (A')
                 (A") (A') (A') (A') (A") (A') (A") (A") (A') (A')
                 (A") (A') (A") (A') (A") (A') (A") (A') (A") (A')
                 (A') (A") (A') (A') (A') (A') (A") (A') (A') (A")
                 (A") (A") (A') (A') (A') (A') (A') (A') (A") (A')
                 (A") (A') (A") (A') (A') (A") (A') (A') (A") (A')
                 (A') (A') (A') (A") (A') (A') (A') (A") (A') (A')
                 (A") (A') (A') (A") (A') (A') (A") (A') (A') (A")
                 (A') (A') (A') (A') (A") (A') (A") (A") (A') (A')
                 (A') (A') (A') (A") (A") (A') (A') (A') (A') (A')
                 (A') (A') (A") (A") (A') (A') (A') (A") (A") (A')
                 (A') (A') (A') (A') (A') (A') (A') (A') (A') (A')
                 (A') (A') (A') (A') (A') (A') (A') (A') (A') (A')
                 (A') (A') (A') (A') (A') (A') (A') (A') (A') (A')
                 (A') (A') (A') (A') (A') (A') (A') (A')
 The electronic state is 1-A'.
 Alpha  occ. eigenvalues --  -11.25771 -11.25706 -11.25606 -11.25497 -11.25353
 Alpha  occ. eigenvalues --  -11.25336 -11.25316 -11.25255 -11.25243 -11.25079
 Alpha  occ. eigenvalues --  -11.24759 -11.24745 -11.24701 -11.24695 -11.24682
 Alpha  occ. eigenvalues --  -11.24672 -11.24658 -11.24622 -11.24601 -11.24576
 Alpha  occ. eigenvalues --  -11.24560 -11.24531 -11.24509 -11.24492 -11.24463
 Alpha  occ. eigenvalues --  -11.24427  -1.19648  -1.18162  -1.15797  -1.12591
 Alpha  occ. eigenvalues --   -1.09910  -1.07608  -1.06772  -1.04408  -1.03193
 Alpha  occ. eigenvalues --   -1.01222  -0.99230  -0.98353  -0.94989  -0.89664
 Alpha  occ. eigenvalues --   -0.86071  -0.85616  -0.83530  -0.82233  -0.81428
 Alpha  occ. eigenvalues --   -0.80682  -0.76826  -0.73267  -0.71507  -0.70006
 Alpha  occ. eigenvalues --   -0.69006  -0.68743  -0.65915  -0.65463  -0.63868
 Alpha  occ. eigenvalues --   -0.62727  -0.61400  -0.60992  -0.60271  -0.59880
 Alpha  occ. eigenvalues --   -0.58219  -0.58146  -0.56985  -0.56839  -0.56498
 Alpha  occ. eigenvalues --   -0.55735  -0.55342  -0.53796  -0.52927  -0.52278
 Alpha  occ. eigenvalues --   -0.50655  -0.49823  -0.49608  -0.48001  -0.47462
 Alpha  occ. eigenvalues --   -0.46384  -0.46045  -0.43681  -0.40879  -0.40030
 Alpha  occ. eigenvalues --   -0.37353  -0.34332  -0.32581  -0.29101  -0.28597
 Alpha  occ. eigenvalues --   -0.23624
 Alpha virt. eigenvalues --    0.03019   0.08488   0.08684   0.11903   0.14183
 Alpha virt. eigenvalues --    0.16449   0.17872   0.18472   0.18638   0.18727
 Alpha virt. eigenvalues --    0.19364   0.19797   0.20948   0.21030   0.21719
 Alpha virt. eigenvalues --    0.22900   0.23630   0.24644   0.25082   0.25306
 Alpha virt. eigenvalues --    0.26502   0.27740   0.29650   0.29918   0.33236
 Alpha virt. eigenvalues --    0.34149   0.35856   0.36691   0.39434   0.39761
 Alpha virt. eigenvalues --    0.39777   0.41016   0.42063   0.43370   0.44054
 Alpha virt. eigenvalues --    0.44077   0.44972   0.45861   0.46089   0.46447
 Alpha virt. eigenvalues --    0.46982   0.48390   0.50550   0.51188   0.51926
 Alpha virt. eigenvalues --    0.52731   0.54886   0.56985   0.58512   0.59392
 Alpha virt. eigenvalues --    0.62901   0.63464   0.64267   0.65228   0.65268
 Alpha virt. eigenvalues --    0.65432   0.65842   0.66160   0.66413   0.66970
 Alpha virt. eigenvalues --    0.67509   0.67849   0.68006   0.68597   0.68921
 Alpha virt. eigenvalues --    0.69222   0.69757   0.70679   0.71000   0.71521
 Alpha virt. eigenvalues --    0.71632   0.71963   0.72254   0.72698   0.72916
 Alpha virt. eigenvalues --    0.73293   0.73445   0.73527   0.74181   0.74520
 Alpha virt. eigenvalues --    0.74826   0.74890   0.75350   0.76145   0.76278
 Alpha virt. eigenvalues --    0.76382   0.77026   0.77095   0.77439   0.78340
 Alpha virt. eigenvalues --    0.78653   0.78912   0.79095   0.80212   0.80325
 Alpha virt. eigenvalues --    0.82479   0.83080   0.83399   0.84542   0.86246
 Alpha virt. eigenvalues --    0.87011   0.87113   0.87912   0.88877   0.89096
 Alpha virt. eigenvalues --    0.89798   0.90011   0.90101   0.91244   0.91682
 Alpha virt. eigenvalues --    0.92097   0.92995   0.93598   0.94021   0.94136
 Alpha virt. eigenvalues --    0.94923   0.96746   0.97521   0.97551   0.99466
 Alpha virt. eigenvalues --    1.00159   1.00244   1.00849   1.02825   1.04328
 Alpha virt. eigenvalues --    1.05148   1.08323   1.08765   1.08934   1.09984
 Alpha virt. eigenvalues --    1.10384   1.10596   1.10945   1.12010   1.12977
 Alpha virt. eigenvalues --    1.13467   1.13649   1.14032   1.14157   1.14489
 Alpha virt. eigenvalues --    1.15385   1.15639   1.16011   1.16766   1.17809
 Alpha virt. eigenvalues --    1.18469   1.18818   1.18879   1.18970   1.19600
 Alpha virt. eigenvalues --    1.19781   1.21232   1.21682   1.22410   1.22843
 Alpha virt. eigenvalues --    1.23276   1.23468   1.24103   1.24554   1.25176
 Alpha virt. eigenvalues --    1.25639   1.27026   1.27640   1.28040   1.29590
 Alpha virt. eigenvalues --    1.29595   1.30333   1.30587   1.30805   1.32325
 Alpha virt. eigenvalues --    1.32794   1.33357   1.33598   1.35492   1.35535
 Alpha virt. eigenvalues --    1.36654   1.37052   1.38397   1.41506   1.44115
 Alpha virt. eigenvalues --    1.46035   1.52715   1.53361   1.54264   1.55894
 Alpha virt. eigenvalues --    1.57887   1.59319   1.60120   1.61414   1.61701
 Alpha virt. eigenvalues --    1.61905   1.62083   1.63930   1.64406   1.66025
 Alpha virt. eigenvalues --    1.66038   1.66615   1.66863   1.68105   1.68693
 Alpha virt. eigenvalues --    1.69007   1.69903   1.71281   1.71323   1.72818
 Alpha virt. eigenvalues --    1.73406   1.73938   1.74023   1.74265   1.74502
 Alpha virt. eigenvalues --    1.76739   1.77562   1.77859   1.79520   1.79906
 Alpha virt. eigenvalues --    1.80683   1.82443   1.82820   1.83885   1.85421
 Alpha virt. eigenvalues --    1.85847   1.86163   1.87200   1.88082   1.88833
 Alpha virt. eigenvalues --    1.89948   1.90360   1.90754   1.90786   1.91184
 Alpha virt. eigenvalues --    1.91277   1.91610   1.91902   1.92565   1.93023
 Alpha virt. eigenvalues --    1.93753   1.94834   1.94905   1.95783   1.96562
 Alpha virt. eigenvalues --    1.97104   1.97128   1.97357   1.98582   1.99467
 Alpha virt. eigenvalues --    1.99994   2.01461   2.01633   2.02786   2.03151
 Alpha virt. eigenvalues --    2.03476   2.04143   2.04213   2.04731   2.05375
 Alpha virt. eigenvalues --    2.05916   2.06483   2.07394   2.09241   2.09896
 Alpha virt. eigenvalues --    2.10018   2.10226   2.11192   2.11528   2.12688
 Alpha virt. eigenvalues --    2.13301   2.13721   2.14764   2.15316   2.16029
 Alpha virt. eigenvalues --    2.16585   2.17539   2.17757   2.18675   2.18796
 Alpha virt. eigenvalues --    2.20066   2.20670   2.21154   2.21796   2.23623
 Alpha virt. eigenvalues --    2.25163   2.25405   2.26181   2.26493   2.26579
 Alpha virt. eigenvalues --    2.29898   2.30159   2.30757   2.31598   2.32399
 Alpha virt. eigenvalues --    2.32976   2.34002   2.35424   2.36087   2.36326
 Alpha virt. eigenvalues --    2.38232   2.38602   2.39892   2.41860   2.44496
 Alpha virt. eigenvalues --    2.47746   2.48196   2.49445   2.49680   2.50530
 Alpha virt. eigenvalues --    2.51636   2.52327   2.52666   2.54252   2.55775
 Alpha virt. eigenvalues --    2.57888   2.59151   2.60336   2.62044   2.62649
 Alpha virt. eigenvalues --    2.64330   2.65487   2.68794   2.69853   2.71206
 Alpha virt. eigenvalues --    2.71490   2.72332   2.74069   2.76490   2.77604
 Alpha virt. eigenvalues --    2.78394   2.80329   2.82239   2.83771   2.89311
 Alpha virt. eigenvalues --    2.90850   2.93501   2.94584   2.97114   2.99546
 Alpha virt. eigenvalues --    3.01241   3.01516   3.04022   3.04910   3.05105
 Alpha virt. eigenvalues --    3.06479   3.07289   3.10493   3.11802   3.13594
 Alpha virt. eigenvalues --    3.18304   3.20063   3.21935   3.24379   3.28795
 Alpha virt. eigenvalues --    3.29926   3.30420   3.59095   3.70798   3.73966
 Alpha virt. eigenvalues --    3.83280   3.90940   3.95858
          Condensed to atoms (all electrons):
 Mulliken charges:
               1
     1  C   -0.018943
     2  C   -0.019572
     3  C    0.025950
     4  C   -0.097439
     5  C    0.071472
     6  C   -0.074654
     7  C    0.036204
     8  C   -0.029399
     9  C   -0.089749
    10  C    0.060815
    11  C   -0.013847
    12  C   -0.038847
    13  C   -0.036543
    14  C   -0.028915
    15  C    0.004596
    16  C   -0.013131
    17  C    0.029873
    18  C   -0.097985
    19  C    0.058378
    20  C   -0.017822
    21  C   -0.033911
    22  C    0.080626
    23  C   -0.085195
    24  C    0.071264
    25  C   -0.093903
    26  C    0.026807
    27  H    0.031363
    28  H    0.031289
    29  H    0.017388
    30  H    0.009895
    31  H    0.014171
    32  H    0.014957
    33  H    0.024815
    34  H    0.025386
    35  H    0.027798
    36  H    0.029834
    37  H    0.018669
    38  H    0.016593
    39  H    0.023924
    40  H    0.010122
    41  H    0.010146
    42  H    0.017521
 Sum of Mulliken charges =  -0.00000
 Mulliken charges with hydrogens summed into heavy atoms:
               1
     1  C    0.012420
     2  C    0.011717
     3  C    0.043338
     4  C   -0.097439
     5  C    0.081367
     6  C   -0.074654
     7  C    0.050375
     8  C   -0.029399
     9  C   -0.089749
    10  C    0.075772
    11  C    0.010967
    12  C   -0.038847
    13  C   -0.036543
    14  C   -0.003529
    15  C    0.032395
    16  C    0.016702
    17  C    0.048542
    18  C   -0.097985
    19  C    0.074972
    20  C    0.006102
    21  C   -0.033911
    22  C    0.090748
    23  C   -0.085195
    24  C    0.081410
    25  C   -0.093903
    26  C    0.044328
 Electronic spatial extent (au):  <R**2>=          13134.3142
 Charge=             -0.0000 electrons
 Dipole moment (field-independent basis, Debye):
    X=             -0.0562    Y=             -0.0064    Z=             -0.0000  Tot=              0.0566
 Unable to Open any file for archive entry.
 1\1\GINC-NODE01\SP\RMP2-FC\CC-pVDZ\C26H16\XUHJ\11-Oct-2024\0\\#T MP2/c
 c-pVDZ symm=veryloose\\c1ccc2cc3cc4c(ccc5c6ccccc6ccc45)cc3cc2c1\\0,1\C
 ,0,-1.395348,-6.971402,0.\C,0,0.035202,-6.957574,0.\C,0,0.718362,-5.76
 9147,0.\C,0,0.021722,-4.516286,0.\C,0,0.691834,-3.290383,0.\C,0,-0.001
 822,-2.064409,0.\C,0,0.673077,-0.818824,0.\C,0,0.,0.398152,0.\C,0,-1.4
 50584,0.372671,0.\C,0,-2.160576,1.621392,0.\C,0,-1.503331,2.812182,0.\
 C,0,-0.062832,2.891145,0.\C,0,0.616598,4.170389,0.\C,0,-0.070074,5.414
 928,0.\C,0,0.612778,6.617012,0.\C,0,2.025532,6.640113,0.\C,0,2.725158,
 5.450406,0.\C,0,2.047484,4.203952,0.\C,0,2.766558,2.973893,0.\C,0,2.11
 1913,1.771469,0.\C,0,0.686103,1.692071,0.\C,0,-2.12963,-0.840438,0.\C,
 0,-1.450251,-2.079767,0.\C,0,-2.122592,-3.317491,0.\C,0,-1.429454,-4.5
 30293,0.\C,0,-2.101611,-5.796599,0.\H,0,-1.923024,-7.929757,0.\H,0,0.5
 81387,-7.905482,0.\H,0,1.812731,-5.756024,0.\H,0,1.786571,-3.280429,0.
 \H,0,1.763695,-0.849744,0.\H,0,-3.254399,1.595245,0.\H,0,-2.089177,3.7
 31495,0.\H,0,-1.16041,5.437664,0.\H,0,0.053313,7.557143,0.\H,0,2.55804
 3,7.595636,0.\H,0,3.81961,5.449539,0.\H,0,3.860304,3.004933,0.\H,0,2.7
 03445,0.855426,0.\H,0,-3.224172,-0.837282,0.\H,0,-3.217207,-3.326549,0
 .\H,0,-3.196012,-5.804771,0.\\Version=ES64L-G16RevC.01\State=1-A'\HF=-
 994.0130314\MP2=-997.3760543\RMSD=3.896e-09\PG=CS [SG(C26H16)]\\@
 The archive entry for this job was punched.


 I FIND THAT THE THREE TRULY GREAT TIMES FOR THINKING THOUGHTS
 ARE WHEN I AM STANDING IN THE SHOWER, SITTING ON THE JOHN, OR WALKING.

                                    -- COLIN FLETCHER
 Job cpu time:       0 days  0 hours 23 minutes 30.8 seconds.
 Elapsed time:       0 days  0 hours  2 minutes 56.7 seconds.
 File lengths (MBytes):  RWF=  29446 Int=      0 D2E=      0 Chk=     14 Scr=      1
 Normal termination of Gaussian 16 at Fri Oct 11 15:12:30 2024.
