 Entering Gaussian System, Link 0=g16
 Initial command:
 /opt/g16/l1.exe "/tmp/Gau-2504036.inp" -scrdir="/tmp/"
 Entering Link 1 = /opt/g16/l1.exe PID=   2504038.
  
 Copyright (c) 1988-2019, Gaussian, Inc.  All Rights Reserved.
  
 This is part of the Gaussian(R) 16 program.  It is based on
 the Gaussian(R) 09 system (copyright 2009, Gaussian, Inc.),
 the Gaussian(R) 03 system (copyright 2003, Gaussian, Inc.),
 the Gaussian(R) 98 system (copyright 1998, Gaussian, Inc.),
 the Gaussian(R) 94 system (copyright 1995, Gaussian, Inc.),
 the Gaussian 92(TM) system (copyright 1992, Gaussian, Inc.),
 the Gaussian 90(TM) system (copyright 1990, Gaussian, Inc.),
 the Gaussian 88(TM) system (copyright 1988, Gaussian, Inc.),
 the Gaussian 86(TM) system (copyright 1986, Carnegie Mellon
 University), and the Gaussian 82(TM) system (copyright 1983,
 Carnegie Mellon University). Gaussian is a federally registered
 trademark of Gaussian, Inc.
  
 This software contains proprietary and confidential information,
 including trade secrets, belonging to Gaussian, Inc.
  
 This software is provided under written license and may be
 used, copied, transmitted, or stored only in accord with that
 written license.
  
 The following legend is applicable only to US Government
 contracts under FAR:
  
                    RESTRICTED RIGHTS LEGEND
  
 Use, reproduction and disclosure by the US Government is
 subject to restrictions as set forth in subparagraphs (a)
 and (c) of the Commercial Computer Software - Restricted
 Rights clause in FAR 52.227-19.
  
 Gaussian, Inc.
 340 Quinnipiac St., Bldg. 40, Wallingford CT 06492
  
  
 ---------------------------------------------------------------
 Warning -- This program may not be used in any manner that
 competes with the business of Gaussian, Inc. or will provide
 assistance to any competitor of Gaussian, Inc.  The licensee
 of this program is prohibited from giving any competitor of
 Gaussian, Inc. access to this program.  By using this program,
 the user acknowledges that Gaussian, Inc. is engaged in the
 business of creating and licensing software in the field of
 computational chemistry and represents and warrants to the
 licensee that it is not a competitor of Gaussian, Inc. and that
 it will not use this program in any manner prohibited above.
 ---------------------------------------------------------------
  

 Cite this work as:
 Gaussian 16, Revision C.01,
 M. J. Frisch, G. W. Trucks, H. B. Schlegel, G. E. Scuseria, 
 M. A. Robb, J. R. Cheeseman, G. Scalmani, V. Barone, 
 G. A. Petersson, H. Nakatsuji, X. Li, M. Caricato, A. V. Marenich, 
 J. Bloino, B. G. Janesko, R. Gomperts, B. Mennucci, H. P. Hratchian, 
 J. V. Ortiz, A. F. Izmaylov, J. L. Sonnenberg, D. Williams-Young, 
 F. Ding, F. Lipparini, F. Egidi, J. Goings, B. Peng, A. Petrone, 
 T. Henderson, D. Ranasinghe, V. G. Zakrzewski, J. Gao, N. Rega, 
 G. Zheng, W. Liang, M. Hada, M. Ehara, K. Toyota, R. Fukuda, 
 J. Hasegawa, M. Ishida, T. Nakajima, Y. Honda, O. Kitao, H. Nakai, 
 T. Vreven, K. Throssell, J. A. Montgomery, Jr., J. E. Peralta, 
 F. Ogliaro, M. J. Bearpark, J. J. Heyd, E. N. Brothers, K. N. Kudin, 
 V. N. Staroverov, T. A. Keith, R. Kobayashi, J. Normand, 
 K. Raghavachari, A. P. Rendell, J. C. Burant, S. S. Iyengar, 
 J. Tomasi, M. Cossi, J. M. Millam, M. Klene, C. Adamo, R. Cammi, 
 J. W. Ochterski, R. L. Martin, K. Morokuma, O. Farkas, 
 J. B. Foresman, and D. J. Fox, Gaussian, Inc., Wallingford CT, 2019.
 
 ******************************************
 Gaussian 16:  ES64L-G16RevC.01  3-Jul-2019
                11-Oct-2024 
 ******************************************
 %nprocshared=8
 Will use up to    8 processors via shared memory.
 %mem=10400MB
 -----------------------------
 #T MP2/cc-pVDZ symm=veryloose
 -----------------------------
 ----------------------------------------
 c1ccc2cc3c(ccc4c5cc6ccccc6cc5ccc34)cc2c1
 ----------------------------------------
 Symbolic Z-matrix:
 Charge =  0 Multiplicity = 1
 C                    -5.04877  -4.86947   0. 
 C                    -3.82973  -5.60895   0. 
 C                    -2.62051  -4.95592   0. 
 C                    -2.55685  -3.52827   0. 
 C                    -1.33266  -2.83589   0. 
 C                    -1.25989  -1.43811   0. 
 C                    -2.50066  -0.69942   0. 
 C                    -2.44938   0.73216   0. 
 C                    -1.25989   1.39823   0. 
 C                    -0.00102   0.70536   0. 
 C                     1.25989   1.43811   0. 
 C                     1.33266   2.83589   0. 
 C                     2.55685   3.52827   0. 
 C                     2.62051   4.95592   0. 
 C                     3.82973   5.60895   0. 
 C                     5.04877   4.86947   0. 
 C                     5.02784   3.49544   0. 
 C                     3.78989   2.78214   0. 
 C                     3.72186   1.38029   0. 
 C                     2.50066   0.69942   0. 
 C                     2.44938  -0.73216   0. 
 C                     1.25989  -1.39823   0. 
 C                     0.00102  -0.70536   0. 
 C                    -3.72186  -1.38029   0. 
 C                    -3.78989  -2.78214   0. 
 C                    -5.02784  -3.49544   0. 
 H                    -6.00309  -5.40442   0. 
 H                    -3.86323  -6.70243   0. 
 H                    -1.68345  -5.5216    0. 
 H                    -0.42203  -3.43679   0. 
 H                    -3.3923    1.28711   0. 
 H                    -1.27231   2.48841   0. 
 H                     0.42203   3.43679   0. 
 H                     1.68345   5.5216    0. 
 H                     3.86323   6.70243   0. 
 H                     6.00309   5.40442   0. 
 H                     5.9613    2.92409   0. 
 H                     4.65086   0.80124   0. 
 H                     3.3923   -1.28711   0. 
 H                     1.27231  -2.48841   0. 
 H                    -4.65086  -0.80124   0. 
 H                    -5.9613   -2.92409   0. 
 
                    Distance matrix (angstroms):
                    1          2          3          4          5
     1  C    0.000000
     2  C    1.425798   0.000000
     3  C    2.429802   1.374288   0.000000
     4  C    2.829927   2.439153   1.429071   0.000000
     5  C    4.236140   3.731650   2.480539   1.406421   0.000000
     6  C    5.111733   4.898979   3.771773   2.459850   1.399673
     7  C    4.886941   5.086255   4.258194   2.829413   2.434903
     8  C    6.175355   6.489610   5.690654   4.261783   3.738722
     9  C    7.323911   7.463561   6.498198   5.094364   4.234751
    10  C    7.520541   7.384419   6.237940   4.945294   3.783355
    11  C    8.921031   8.692837   7.479386   6.263584   4.998847
    12  C   10.004764   9.897766   8.737276   7.458613   6.266829
    13  C   11.329938  11.147974   9.939146   8.714627   7.458613
    14  C   12.464196  12.378298  11.212181   9.939146   8.737276
    15  C   13.734087  13.583403  12.378298  11.147974   9.897766
    16  C   14.028800  13.734087  12.464196  11.329938  10.004764
    17  C   13.096173  12.702226  11.398367  10.337312   8.974506
    18  C   11.690556  11.334424  10.048428   8.949997   7.602822
    19  C   10.769557  10.289606   8.965109   7.969699   6.582124
    20  C    9.381172   8.936969   7.629499   6.591794   5.214671
    21  C    8.563858   7.950499   6.598789   5.734162   4.327768
    22  C    7.200603   6.605636   5.264472   4.370877   2.964490
    23  C    6.545239   6.222528   4.993964   3.809397   2.513537
    24  C    3.732973   4.230044   3.741411   2.443581   2.797686
    25  C    2.437561   2.827093   2.468357   1.441217   2.457817
    26  C    1.374188   2.429488   2.815717   2.471209   3.753576
    27  H    1.094028   2.182963   3.412186   3.923838   5.330123
    28  H    2.182950   1.093989   2.143509   3.432477   4.621023
    29  H    3.427925   2.148058   1.094565   2.176280   2.708522
    30  H    4.843481   4.041129   2.672279   2.136780   1.091026
    31  H    6.375524   6.909922   6.290558   4.887317   4.608824
    32  H    8.270431   8.491627   7.565432   6.152277   5.324646
    33  H    9.946036   9.995150   8.927191   7.575345   6.513490
    34  H   12.381324  12.421132  11.327077   9.994018   8.885084
    35  H   14.605907  14.517292  13.340016  12.078271  10.861717
    36  H   15.089611  14.764103  13.479731  12.371964  11.032498
    37  H   13.489295  12.987572  11.650835  10.686053   9.294042
    38  H   11.235651  10.630669   9.274579   8.408080   7.002239
    39  H    9.169790   8.416421   7.043729   6.357297   4.972328
    40  H    6.754664   5.980686   4.608975   3.967840   2.628045
    41  H    4.087636   4.877328   4.624251   3.438251   3.892332
    42  H    2.148767   3.428129   3.910142   3.457642   4.629472
                    6          7          8          9         10
     6  C    0.000000
     7  C    1.444016   0.000000
     8  C    2.474866   1.432491   0.000000
     9  C    2.836346   2.437138   1.363286   0.000000
    10  C    2.485810   2.867335   2.448510   1.436949   0.000000
    11  C    3.823870   4.325595   3.775854   2.520096   1.458361
    12  C    4.998847   5.214671   4.327768   2.964490   2.513537
    13  C    6.263584   6.591794   5.734162   4.370877   3.809397
    14  C    7.479386   7.629499   6.598789   5.264472   4.993964
    15  C    8.692837   8.936969   7.950499   6.605636   6.222528
    16  C    8.921031   9.381172   8.563858   7.200603   6.545239
    17  C    7.992214   8.618301   7.971485   6.628259   5.750995
    18  C    6.581099   7.189736   6.567418   5.235982   4.322501
    19  C    5.723739   6.560861   6.205181   4.981780   3.783561
    20  C    4.325595   5.193259   4.950150   3.824929   2.501686
    21  C    3.775854   4.950150   5.112934   4.277529   2.840938
    22  C    2.520096   3.824929   4.277529   3.764240   2.452550
    23  C    1.458361   2.501686   2.840938   2.452550   1.410727
    24  C    2.462647   1.398180   2.466091   3.712337   4.265510
    25  C    2.864842   2.449462   3.761284   4.886352   5.149587
    26  C    4.293021   3.768869   4.951868   6.176201   6.551004
    27  H    6.183002   5.865496   7.091288   8.293008   8.564711
    28  H    5.872851   6.155709   7.567828   8.508706   8.354163
    29  H    4.105398   4.890942   6.300489   6.932787   6.450248
    30  H    2.167195   3.437142   4.635764   4.907086   4.163498
    31  H    3.460350   2.177455   1.094108   2.135306   3.440819
    32  H    3.926544   3.416298   2.114221   1.090249   2.189848
    33  H    5.156896   5.064617   3.944624   2.642836   2.763998
    34  H    7.556516   7.497192   6.326067   5.066108   5.102315
    35  H    9.618460   9.761474   8.688682   7.374336   7.134228
    36  H    9.978533  10.467596   9.657864   8.294602   7.624333
    37  H    8.436487   9.205133   8.691608   7.380633   6.361755
    38  H    6.320737   7.307274   7.100580   5.940824   4.652869
    39  H    4.654643   5.922195   6.180834   5.371587   3.935044
    40  H    2.741377   4.175618   4.921689   4.638751   3.438248
    41  H    3.450260   2.152612   2.682877   4.041830   4.887832
    42  H    4.930652   4.114019   5.069680   6.386365   6.978381
                   11         12         13         14         15
    11  C    0.000000
    12  C    1.399673   0.000000
    13  C    2.459850   1.406421   0.000000
    14  C    3.771773   2.480539   1.429071   0.000000
    15  C    4.898979   3.731650   2.439153   1.374288   0.000000
    16  C    5.111733   4.236140   2.829927   2.429802   1.425798
    17  C    4.293021   3.753576   2.471209   2.815717   2.429488
    18  C    2.864842   2.457817   1.441217   2.468357   2.827093
    19  C    2.462647   2.797686   2.443581   3.741411   4.230044
    20  C    1.444016   2.434903   2.829413   4.258194   5.086255
    21  C    2.474866   3.738722   4.261783   5.690654   6.489610
    22  C    2.836346   4.234751   5.094364   6.498198   7.463561
    23  C    2.485810   3.783355   4.945294   6.237940   7.384419
    24  C    5.723739   6.582124   7.969699   8.965109  10.289606
    25  C    6.581099   7.602822   8.949997  10.048428  11.334424
    26  C    7.992214   8.974506  10.337312  11.398367  12.702226
    27  H    9.978533  11.032498  12.371964  13.479731  14.764103
    28  H    9.618460  10.861717  12.078271  13.340016  14.517292
    29  H    7.556516   8.885084   9.994018  11.327077  12.421132
    30  H    5.156896   6.513490   7.575345   8.927191   9.995150
    31  H    4.654643   4.972328   6.357297   7.043729   8.416421
    32  H    2.741377   2.628045   3.967840   4.608975   5.980686
    33  H    2.167195   1.091026   2.136780   2.672279   4.041129
    34  H    4.105398   2.708522   2.176280   1.094565   2.148058
    35  H    5.872851   4.621023   3.432477   2.143509   1.093989
    36  H    6.183002   5.330123   3.923838   3.412186   2.182963
    37  H    4.930652   4.629472   3.457642   3.910142   3.428129
    38  H    3.450260   3.892332   3.438251   4.624251   4.877328
    39  H    3.460350   4.608824   4.887317   6.290558   6.909922
    40  H    3.926544   5.324646   6.152277   7.565432   8.491627
    41  H    6.320737   7.002239   8.408080   9.274579  10.630669
    42  H    8.436487   9.294042  10.686053  11.650835  12.987572
                   16         17         18         19         20
    16  C    0.000000
    17  C    1.374188   0.000000
    18  C    2.437561   1.428743   0.000000
    19  C    3.732973   2.485851   1.403506   0.000000
    20  C    4.886941   3.768869   2.449462   1.398180   0.000000
    21  C    6.175355   4.951868   3.761284   2.466091   1.432491
    22  C    7.323911   6.176201   4.886352   3.712337   2.437138
    23  C    7.520541   6.551004   5.149587   4.265510   2.867335
    24  C   10.769557  10.016481   8.587910   7.939122   6.560861
    25  C   11.690556  10.824066   9.402892   8.587910   7.189736
    26  C   13.096173  12.247002  10.824066  10.016481   8.618301
    27  H   15.089611  14.173527  12.764101  11.857775  10.467596
    28  H   14.605907  13.529507  12.187179  11.084394   9.761474
    29  H   12.381324  11.240484   9.945335   8.766610   7.497192
    30  H    9.946036   8.817987   7.511021   6.354215   5.064617
    31  H    9.169790   8.704914   7.336147   7.114771   5.922195
    32  H    6.754664   6.380123   5.070715   5.115626   4.175618
    33  H    4.843481   4.606185   3.430900   3.888201   3.437142
    34  H    3.427925   3.910280   3.455683   4.615801   4.890942
    35  H    2.182950   3.411909   3.920974   5.324021   6.155709
    36  H    1.094028   2.143668   3.431410   4.625759   5.865496
    37  H    2.148767   1.094431   2.176038   2.720000   4.114019
    38  H    4.087636   2.720440   2.159913   1.094686   2.152612
    39  H    6.375524   5.054476   4.088627   2.687675   2.177455
    40  H    8.270431   7.064733   5.840971   4.578985   3.416298
    41  H   11.235651  10.589558   9.169895   8.652255   7.307274
    42  H   13.489295  12.726799  11.298084  10.596749   9.205133
                   21         22         23         24         25
    21  C    0.000000
    22  C    1.363286   0.000000
    23  C    2.448510   1.436949   0.000000
    24  C    6.205181   4.981780   3.783561   0.000000
    25  C    6.567418   5.235982   4.322501   1.403506   0.000000
    26  C    7.971485   6.628259   5.750995   2.485851   1.428743
    27  H    9.657864   8.294602   7.624333   4.625759   3.431410
    28  H    8.688682   7.374336   7.134228   5.324021   3.920974
    29  H    6.326067   5.066108   5.102315   4.615801   3.455683
    30  H    3.944624   2.642836   2.763998   3.888201   3.430900
    31  H    6.180834   5.371587   3.935044   2.687675   4.088627
    32  H    4.921689   4.638751   3.438248   4.578985   5.840971
    33  H    4.635764   4.907086   4.163498   6.354215   7.511021
    34  H    6.300489   6.932787   6.450248   8.766610   9.945335
    35  H    7.567828   8.508706   8.354163  11.084394  12.187179
    36  H    7.091288   8.293008   8.564711  11.857775  12.764101
    37  H    5.069680   6.386365   6.978381  10.596749  11.298084
    38  H    2.682877   4.041830   4.887832   8.652255   9.169895
    39  H    1.094108   2.135306   3.440819   7.114771   7.336147
    40  H    2.114221   1.090249   2.189848   5.115626   5.070715
    41  H    7.100580   5.940824   4.652869   1.094686   2.159913
    42  H    8.691608   7.380633   6.361755   2.720000   2.176038
                   26         27         28         29         30
    26  C    0.000000
    27  H    2.143668   0.000000
    28  H    3.411909   2.502772   0.000000
    29  H    3.910280   4.321230   2.479066   0.000000
    30  H    4.606185   5.917754   4.744072   2.436723   0.000000
    31  H    5.054476   7.182807   8.003405   7.019881   5.580124
    32  H    7.064733   9.202012   9.549052   8.020559   5.985902
    33  H    8.817987  10.929280  11.007600   9.202496   6.925218
    34  H   11.240484  13.358924  13.423585  11.545063   9.202496
    35  H   13.529507  15.617937  15.472179  13.423585  11.007600
    36  H   14.173527  16.154854  15.617937  13.358924  10.929280
    37  H   12.726799  14.577741  13.754674  11.391745   9.011528
    38  H   10.589558  12.329515  11.348780   8.949968   6.610233
    39  H    8.704914  10.257957   9.053641   6.610161   4.378387
    40  H    6.380123   7.838019   6.643167   4.235183   1.941702
    41  H    2.720440   4.797678   5.953517   5.575601   4.982887
    42  H    1.094431   2.480680   4.321778   5.004702   5.562944
                   31         32         33         34         35
    31  H    0.000000
    32  H    2.436700   0.000000
    33  H    4.378387   1.941702   0.000000
    34  H    6.610161   4.235183   2.436723   0.000000
    35  H    9.053641   6.643167   4.744072   2.479066   0.000000
    36  H   10.257957   7.838019   5.917754   4.321230   2.502772
    37  H    9.495762   7.246712   5.562944   5.004702   4.321778
    38  H    8.057826   6.158772   4.982887   5.575601   5.953517
    39  H    7.256546   6.001094   5.580124   7.019881   8.003405
    40  H    6.001094   5.589616   5.985902   8.020559   9.549052
    41  H    2.438275   4.715554   6.610233   8.949968  11.348780
    42  H    4.932939   7.161127   9.011528  11.391745  13.754674
                   36         37         38         39         40
    36  H    0.000000
    37  H    2.480680   0.000000
    38  H    4.797678   2.494735   0.000000
    39  H    7.182807   4.932939   2.438275   0.000000
    40  H    9.202012   7.161127   4.715554   2.436700   0.000000
    41  H   12.329515  11.247043   9.438752   8.057826   6.158772
    42  H   14.577741  13.279658  11.247043   9.495762   7.246712
                   41         42
    41  H    0.000000
    42  H    2.494735   0.000000
 Framework group  C2H[SGH(C26H16)]
 Deg. of freedom    41
                         Standard orientation:                         
 ---------------------------------------------------------------------
 Center     Atomic      Atomic             Coordinates (Angstroms)
 Number     Number       Type             X           Y           Z
 ---------------------------------------------------------------------
      1          6           0        5.048772   -4.869467    0.000000
      2          6           0        3.829732   -5.608954    0.000000
      3          6           0        2.620509   -4.955924    0.000000
      4          6           0        2.556849   -3.528272    0.000000
      5          6           0        1.332663   -2.835894    0.000000
      6          6           0        1.259890   -1.438114    0.000000
      7          6           0        2.500660   -0.699417    0.000000
      8          6           0        2.449382    0.732156    0.000000
      9          6           0        1.259890    1.398232   -0.000000
     10          6           0        0.001019    0.705363   -0.000000
     11          6           0       -1.259890    1.438114    0.000000
     12          6           0       -1.332663    2.835894    0.000000
     13          6           0       -2.556849    3.528272    0.000000
     14          6           0       -2.620509    4.955924    0.000000
     15          6           0       -3.829732    5.608954    0.000000
     16          6           0       -5.048772    4.869467    0.000000
     17          6           0       -5.027840    3.495438   -0.000000
     18          6           0       -3.789892    2.782142   -0.000000
     19          6           0       -3.721858    1.380286   -0.000000
     20          6           0       -2.500660    0.699417    0.000000
     21          6           0       -2.449382   -0.732156    0.000000
     22          6           0       -1.259890   -1.398232   -0.000000
     23          6           0       -0.001019   -0.705363   -0.000000
     24          6           0        3.721858   -1.380286   -0.000000
     25          6           0        3.789892   -2.782142   -0.000000
     26          6           0        5.027840   -3.495438   -0.000000
     27          1           0        6.003092   -5.404416    0.000000
     28          1           0        3.863226   -6.702430    0.000000
     29          1           0        1.683451   -5.521604    0.000000
     30          1           0        0.422028   -3.436794    0.000000
     31          1           0        3.392303    1.287108   -0.000000
     32          1           0        1.272308    2.488410   -0.000000
     33          1           0       -0.422028    3.436794    0.000000
     34          1           0       -1.683451    5.521604    0.000000
     35          1           0       -3.863226    6.702430    0.000000
     36          1           0       -6.003092    5.404416    0.000000
     37          1           0       -5.961295    2.924088   -0.000000
     38          1           0       -4.650862    0.801244   -0.000000
     39          1           0       -3.392303   -1.287108   -0.000000
     40          1           0       -1.272308   -2.488410   -0.000000
     41          1           0        4.650862   -0.801244   -0.000000
     42          1           0        5.961295   -2.924088   -0.000000
 ---------------------------------------------------------------------
 Rotational constants (GHZ):           0.8528639           0.0846193           0.0769814
   444 basis functions,   970 primitive gaussians,   470 cartesian basis functions
    86 alpha electrons       86 beta electrons
       nuclear repulsion energy      1936.6336416849 Hartrees.
 NAtoms=   42 NActive=   42 NUniq=   21 SFac= 4.00D+00 NAtFMM=   60 NAOKFM=F Big=F
 ExpMin= 1.22D-01 ExpMax= 6.67D+03 ExpMxC= 2.28D+02 IAcc=3 IRadAn=         5 AccDes= 0.00D+00
 Harris functional with IExCor=  205 and IRadAn=       5 diagonalized for initial guess.
 HarFok:  IExCor=  205 AccDes= 0.00D+00 IRadAn=         5 IDoV= 1 UseB2=F ITyADJ=14
 ICtDFT=  3500011 ScaDFX=  1.000000  1.000000  1.000000  1.000000
 FoFCou: FMM=F IPFlag=           0 FMFlag=      100000 FMFlg1=           0
         NFxFlg=           0 DoJE=T BraDBF=F KetDBF=T FulRan=T
         wScrn=  0.000000 ICntrl=       500 IOpCl=  0 I1Cent=   200000004 NGrid=           0
         NMat0=    1 NMatS0=      1 NMatT0=    0 NMatD0=    1 NMtDS0=    0 NMtDT0=    0
 Petite list used in FoFCou.
 Initial guess orbital symmetries:
       Occupied  (BU) (AG) (BU) (AG) (BU) (AG) (BU) (AG) (AG) (BU)
                 (BU) (AG) (AG) (BU) (AG) (BU) (BU) (AG) (BU) (AG)
                 (BU) (AG) (BU) (AG) (AG) (BU) (AG) (BU) (AG) (BU)
                 (AG) (BU) (AG) (BU) (BU) (AG) (AG) (BU) (AG) (BU)
                 (AG) (BU) (AG) (BU) (AG) (BU) (AG) (BU) (AG) (BU)
                 (BU) (AG) (AG) (AG) (BU) (BU) (AG) (BU) (AG) (BU)
                 (AG) (BU) (AG) (BU) (AG) (AU) (BU) (BG) (AG) (BU)
                 (AU) (BU) (AG) (AG) (BG) (BU) (AG) (BG) (AU) (AU)
                 (BG) (BG) (AU) (AU) (BG) (AU)
       Virtual   (BG) (AU) (BG) (BG) (AU) (AU) (BG) (BG) (AU) (AU)
                 (BU) (AG) (BU) (AG) (BG) (AG) (BU) (BU) (AG) (AU)
                 (AG) (BU) (BU) (AG) (AG) (BU) (BG) (BU) (AG) (BU)
                 (BU) (AG) (AG) (BU) (AG) (BU) (BU) (AG) (BU) (AG)
                 (AG) (BU) (BU) (AG) (AG) (BU) (AG) (BU) (BU) (AG)
                 (BU) (AG) (AG) (BU) (AG) (AU) (BU) (BG) (AG) (BU)
                 (AU) (BU) (BG) (AG) (AG) (BU) (BU) (AG) (AU) (BG)
                 (AG) (BU) (AG) (BU) (AG) (BU) (AG) (BG) (BU) (AU)
                 (AG) (BU) (AG) (BU) (AG) (AU) (BU) (BU) (BG) (AU)
                 (BG) (AG) (AG) (BG) (BU) (AU) (AU) (AU) (BG) (AG)
                 (BU) (AG) (BU) (BG) (BU) (AG) (BG) (BU) (AG) (AG)
                 (AU) (BU) (AG) (BU) (AU) (BG) (BU) (AG) (BU) (AG)
                 (AU) (BG) (AU) (BG) (AU) (BG) (AG) (BU) (AG) (BG)
                 (BU) (AU) (AG) (BU) (AG) (BU) (AG) (BG) (AU) (BU)
                 (BU) (AG) (AG) (BU) (AU) (BG) (AG) (AU) (BU) (BU)
                 (AU) (BG) (AG) (BG) (BU) (AU) (AG) (BG) (BG) (AU)
                 (BU) (AG) (AU) (BG) (BU) (AG) (AU) (BU) (BG) (AG)
                 (BU) (AU) (AG) (AG) (AG) (BU) (BU) (AG) (AG) (BU)
                 (BU) (AG) (BU) (AG) (BG) (BU) (AU) (BU) (AG) (BU)
                 (AU) (BG) (AG) (BG) (AU) (AG) (BU) (BU) (AG) (AG)
                 (BG) (BU) (AG) (AG) (BU) (AU) (BU) (AG) (BG) (BU)
                 (BG) (AU) (AU) (AG) (AG) (BU) (BG) (AG) (BU) (AG)
                 (BU) (BU) (BG) (BU) (AG) (AG) (BU) (AU) (AG) (BU)
                 (BG) (AG) (BU) (BU) (AU) (AG) (AU) (BG) (AG) (BG)
                 (AU) (BU) (BG) (AU) (BG) (BU) (AG) (AU) (BG) (AG)
                 (AU) (AG) (AG) (BU) (BU) (AG) (BU) (AU) (BU) (AG)
                 (AG) (BU) (BG) (AU) (BU) (AG) (BG) (AG) (BU) (AG)
                 (BG) (BU) (BU) (AU) (BU) (AG) (AU) (BU) (AG) (AG)
                 (BG) (BU) (AU) (AG) (BU) (BG) (BU) (AG) (BU) (AU)
                 (AG) (BG) (AG) (BU) (BU) (AG) (BG) (AU) (BU) (AG)
                 (BU) (AG) (AU) (BU) (AG) (BG) (AG) (BU) (BU) (AG)
                 (BU) (AG) (BG) (AG) (AU) (BU) (BU) (AG) (BU) (AU)
                 (BG) (AG) (BU) (AG) (AG) (BU) (BU) (AG) (BU) (AG)
                 (BU) (AG) (BU) (AG) (BU) (AG) (BU) (AG) (BU) (AG)
                 (BU) (AG) (BU) (AG) (AG) (BU) (AG) (BU) (AG) (BU)
                 (AG) (BU) (AG) (BU) (BU) (AG) (BU) (AG)
 The electronic state of the initial guess is 1-AG.
 Integral accuracy reduced to 1.0D-05 until final iterations.
 Initial convergence to 1.0D-05 achieved.  Increase integral accuracy.
 SCF Done:  E(RHF) =  -994.017557300     A.U. after   17 cycles
            NFock= 17  Conv=0.18D-08     -V/T= 2.0012
 ExpMin= 1.22D-01 ExpMax= 6.67D+03 ExpMxC= 2.28D+02 IAcc=3 IRadAn=         5 AccDes= 0.00D+00
 HarFok:  IExCor=  205 AccDes= 0.00D+00 IRadAn=         5 IDoV=-2 UseB2=F ITyADJ=14
 ICtDFT= 12500011 ScaDFX=  1.000000  1.000000  1.000000  1.000000
 GSVD:  LWork=        -884 too small for GESVD, short by        3770 words or        3770 for optimal perf.
 NROrb=    418 NOA=    60 NOB=    60 NVA=   358 NVB=   358

 **** Warning!!: The largest alpha MO coefficient is  0.12431365D+02

 Estimated scratch disk usage=  2586806800 words.
 Actual    scratch disk usage=  1948622352 words.
 (rs|ai) integrals will be sorted in core.
 ANorm=    0.1522521069D+01
 E2 =    -0.3361955122D+01 EUMP2 =    -0.99737951242211D+03

 **********************************************************************

            Population analysis using the SCF Density.

 **********************************************************************

 Orbital symmetries:
       Occupied  (AG) (BU) (AG) (BU) (AG) (BU) (BU) (AG) (AG) (BU)
                 (BU) (AG) (AG) (BU) (AG) (BU) (BU) (AG) (AG) (BU)
                 (BU) (AG) (AG) (BU) (AG) (BU) (AG) (BU) (AG) (BU)
                 (BU) (AG) (AG) (BU) (BU) (AG) (AG) (BU) (AG) (BU)
                 (AG) (BU) (AG) (BU) (AG) (BU) (AG) (BU) (AG) (BU)
                 (BU) (AG) (AG) (BU) (AG) (AG) (BU) (BU) (AG) (BU)
                 (BU) (AG) (AG) (BU) (AG) (AU) (BU) (BG) (AG) (BU)
                 (AU) (BU) (AG) (AG) (BU) (BG) (AG) (BG) (AU) (AU)
                 (BG) (AU) (BG) (AU) (BG) (AU)
       Virtual   (BG) (AU) (BG) (AU) (BG) (AU) (BU) (BG) (AG) (BU)
                 (AG) (AG) (BU) (BU) (BG) (AG) (AU) (AG) (BU) (BU)
                 (AG) (AG) (BU) (AU) (BU) (AG) (BG) (BU) (AG) (AU)
                 (AG) (BU) (BU) (AG) (BG) (BU) (AG) (BU) (AG) (BU)
                 (AG) (BU) (AG) (BU) (AG) (BU) (AG) (BU) (BU) (AG)
                 (AG) (BU) (AG) (BU) (AU) (AG) (BU) (BG) (AG) (BU)
                 (AU) (BU) (BG) (AG) (BU) (AG) (BG) (AG) (BU) (AU)
                 (BU) (AG) (BG) (AG) (BU) (AU) (AG) (BU) (AG) (AU)
                 (BU) (AG) (AG) (BU) (AG) (BG) (BU) (AU) (BU) (AG)
                 (BG) (BU) (BG) (AU) (BU) (AG) (AU) (AU) (BG) (AG)
                 (BG) (BU) (BG) (AG) (BU) (AG) (AU) (BU) (AG) (AG)
                 (AU) (BU) (BU) (AG) (BG) (BU) (BU) (AG) (AU) (BG)
                 (AG) (AU) (BU) (BG) (BG) (AU) (AG) (BU) (BG) (BU)
                 (AU) (BU) (AG) (AG) (AG) (BU) (BU) (AU) (AG) (BG)
                 (AG) (BU) (BU) (AG) (BU) (AU) (BG) (AG) (AU) (BU)
                 (AG) (AG) (BU) (AU) (BG) (BG) (AU) (AG) (BG) (BU)
                 (BG) (BU) (AU) (AG) (AU) (AG) (BU) (BG) (BU) (AU)
                 (AG) (BG) (BU) (AG) (AU) (AG) (BU) (AG) (AG) (BU)
                 (BU) (AG) (BU) (AG) (BG) (BU) (BU) (AG) (AU) (BU)
                 (AG) (AU) (BG) (AG) (BU) (AU) (BG) (AG) (AG) (BU)
                 (BG) (BU) (AG) (AU) (BU) (AG) (BG) (AU) (BG) (BU)
                 (AU) (AG) (BU) (AG) (BG) (AG) (BU) (BU) (AG) (BU)
                 (BG) (AG) (BU) (AU) (AG) (BU) (BG) (AG) (BU) (AU)
                 (BG) (AU) (BU) (AG) (BU) (AU) (BG) (AG) (AG) (AG)
                 (BG) (BU) (AU) (AG) (BU) (BG) (BU) (BU) (AU) (AG)
                 (AU) (BG) (AG) (AG) (BU) (BU) (AG) (AG) (AU) (BU)
                 (BG) (BU) (AU) (AG) (AG) (BU) (BG) (AG) (BU) (BG)
                 (BU) (AG) (BU) (AG) (BU) (AU) (AG) (AU) (BU) (AG)
                 (BU) (BG) (BU) (AU) (AG) (BU) (BG) (AG) (AU) (BU)
                 (AG) (BG) (AG) (BU) (BU) (AG) (BG) (AU) (AG) (BU)
                 (BU) (AG) (AU) (BU) (BG) (AG) (AG) (BU) (BU) (AG)
                 (BU) (AG) (BG) (AU) (AG) (BU) (BU) (AU) (BG) (AG)
                 (BU) (AG) (BU) (AG) (AG) (AG) (BU) (BU) (BU) (AG)
                 (BU) (AG) (BU) (AG) (BU) (AG) (AG) (BU) (BU) (AG)
                 (BU) (AG) (BU) (AG) (AG) (BU) (AG) (BU) (BU) (AG)
                 (BU) (AG) (AG) (BU) (BU) (AG) (BU) (AG)
 The electronic state is 1-AG.
 Alpha  occ. eigenvalues --  -11.25762 -11.25705 -11.25661 -11.25607 -11.25240
 Alpha  occ. eigenvalues --  -11.25240 -11.25226 -11.25226 -11.25126 -11.25126
 Alpha  occ. eigenvalues --  -11.24704 -11.24704 -11.24686 -11.24686 -11.24666
 Alpha  occ. eigenvalues --  -11.24665 -11.24662 -11.24662 -11.24635 -11.24635
 Alpha  occ. eigenvalues --  -11.24563 -11.24563 -11.24517 -11.24516 -11.24510
 Alpha  occ. eigenvalues --  -11.24510  -1.19694  -1.18145  -1.15797  -1.12841
 Alpha  occ. eigenvalues --   -1.08821  -1.08710  -1.06252  -1.04971  -1.02557
 Alpha  occ. eigenvalues --   -1.01976  -0.98990  -0.97855  -0.95495  -0.88855
 Alpha  occ. eigenvalues --   -0.86945  -0.85979  -0.82672  -0.82509  -0.81335
 Alpha  occ. eigenvalues --   -0.81048  -0.75589  -0.74613  -0.71272  -0.70573
 Alpha  occ. eigenvalues --   -0.68877  -0.68433  -0.65730  -0.64564  -0.64432
 Alpha  occ. eigenvalues --   -0.62542  -0.61871  -0.61005  -0.60546  -0.59954
 Alpha  occ. eigenvalues --   -0.58515  -0.58319  -0.57105  -0.56516  -0.55827
 Alpha  occ. eigenvalues --   -0.55788  -0.55033  -0.53763  -0.53310  -0.52460
 Alpha  occ. eigenvalues --   -0.50640  -0.49804  -0.49412  -0.47928  -0.47738
 Alpha  occ. eigenvalues --   -0.46811  -0.45980  -0.42559  -0.41514  -0.39876
 Alpha  occ. eigenvalues --   -0.37876  -0.33747  -0.33284  -0.28838  -0.28001
 Alpha  occ. eigenvalues --   -0.24389
 Alpha virt. eigenvalues --    0.03956   0.07303   0.08520   0.12974   0.13602
 Alpha virt. eigenvalues --    0.17079   0.17841   0.17891   0.18483   0.18591
 Alpha virt. eigenvalues --    0.19258   0.19764   0.21136   0.21558   0.22764
 Alpha virt. eigenvalues --    0.22980   0.23313   0.23792   0.24837   0.25246
 Alpha virt. eigenvalues --    0.26360   0.27777   0.29662   0.30310   0.33259
 Alpha virt. eigenvalues --    0.34171   0.35931   0.36680   0.39448   0.39589
 Alpha virt. eigenvalues --    0.40180   0.40704   0.42332   0.44022   0.44150
 Alpha virt. eigenvalues --    0.44549   0.44996   0.45511   0.46119   0.46273
 Alpha virt. eigenvalues --    0.47576   0.48556   0.50017   0.50582   0.51411
 Alpha virt. eigenvalues --    0.54075   0.55196   0.56371   0.57838   0.59906
 Alpha virt. eigenvalues --    0.63106   0.63833   0.63855   0.65044   0.65231
 Alpha virt. eigenvalues --    0.65734   0.65816   0.66453   0.67228   0.67347
 Alpha virt. eigenvalues --    0.67829   0.68442   0.68494   0.68569   0.69137
 Alpha virt. eigenvalues --    0.69261   0.69875   0.70140   0.70367   0.70496
 Alpha virt. eigenvalues --    0.70943   0.71559   0.72215   0.72593   0.72687
 Alpha virt. eigenvalues --    0.72743   0.73734   0.74228   0.74379   0.74630
 Alpha virt. eigenvalues --    0.75155   0.75767   0.75871   0.76143   0.76205
 Alpha virt. eigenvalues --    0.76431   0.76656   0.77121   0.77237   0.77309
 Alpha virt. eigenvalues --    0.78340   0.78470   0.79132   0.80545   0.81679
 Alpha virt. eigenvalues --    0.82430   0.82553   0.83271   0.84561   0.86260
 Alpha virt. eigenvalues --    0.87173   0.87175   0.88064   0.88440   0.88474
 Alpha virt. eigenvalues --    0.89434   0.89825   0.90180   0.91031   0.92124
 Alpha virt. eigenvalues --    0.92338   0.92673   0.93178   0.93953   0.94017
 Alpha virt. eigenvalues --    0.94300   0.97650   0.97895   0.98878   0.99452
 Alpha virt. eigenvalues --    0.99816   1.00244   1.01215   1.03196   1.04295
 Alpha virt. eigenvalues --    1.04361   1.08148   1.09250   1.09343   1.10213
 Alpha virt. eigenvalues --    1.10422   1.11297   1.11404   1.11638   1.12114
 Alpha virt. eigenvalues --    1.13237   1.13783   1.13814   1.13849   1.13977
 Alpha virt. eigenvalues --    1.14291   1.14581   1.16149   1.17784   1.18216
 Alpha virt. eigenvalues --    1.18259   1.18711   1.18909   1.20378   1.20481
 Alpha virt. eigenvalues --    1.20625   1.21411   1.21521   1.21977   1.22072
 Alpha virt. eigenvalues --    1.22351   1.22424   1.24274   1.24829   1.25215
 Alpha virt. eigenvalues --    1.25896   1.27298   1.27894   1.28674   1.29290
 Alpha virt. eigenvalues --    1.30027   1.30449   1.30460   1.32415   1.32663
 Alpha virt. eigenvalues --    1.33177   1.33194   1.34318   1.35160   1.35527
 Alpha virt. eigenvalues --    1.35626   1.36509   1.37058   1.41770   1.43306
 Alpha virt. eigenvalues --    1.50315   1.51430   1.53508   1.53984   1.57986
 Alpha virt. eigenvalues --    1.58223   1.59519   1.60102   1.61476   1.61514
 Alpha virt. eigenvalues --    1.63029   1.63066   1.63571   1.63766   1.64058
 Alpha virt. eigenvalues --    1.65617   1.66187   1.66395   1.68336   1.68713
 Alpha virt. eigenvalues --    1.68821   1.69804   1.70805   1.71413   1.71544
 Alpha virt. eigenvalues --    1.72701   1.74209   1.74322   1.74681   1.76170
 Alpha virt. eigenvalues --    1.76934   1.77223   1.78573   1.78977   1.79506
 Alpha virt. eigenvalues --    1.80566   1.82577   1.84194   1.84278   1.85411
 Alpha virt. eigenvalues --    1.85771   1.86721   1.87015   1.88578   1.88627
 Alpha virt. eigenvalues --    1.88826   1.90289   1.90314   1.90828   1.90981
 Alpha virt. eigenvalues --    1.91214   1.91831   1.91874   1.92598   1.94280
 Alpha virt. eigenvalues --    1.94395   1.94573   1.94690   1.95390   1.96463
 Alpha virt. eigenvalues --    1.96670   1.96813   1.97373   1.99312   1.99522
 Alpha virt. eigenvalues --    1.99997   2.00872   2.01824   2.02534   2.03144
 Alpha virt. eigenvalues --    2.03405   2.03651   2.04257   2.05047   2.05390
 Alpha virt. eigenvalues --    2.06385   2.06945   2.08819   2.09070   2.09563
 Alpha virt. eigenvalues --    2.10463   2.10485   2.10950   2.11236   2.11554
 Alpha virt. eigenvalues --    2.12620   2.13106   2.15111   2.15646   2.16475
 Alpha virt. eigenvalues --    2.16554   2.17284   2.17382   2.18758   2.19114
 Alpha virt. eigenvalues --    2.19445   2.21333   2.21870   2.23060   2.24294
 Alpha virt. eigenvalues --    2.24512   2.25897   2.26586   2.26661   2.26789
 Alpha virt. eigenvalues --    2.27454   2.27778   2.31662   2.31743   2.31928
 Alpha virt. eigenvalues --    2.32696   2.35016   2.35562   2.36032   2.37157
 Alpha virt. eigenvalues --    2.37285   2.39937   2.40487   2.42967   2.43288
 Alpha virt. eigenvalues --    2.47076   2.47972   2.49651   2.50072   2.50878
 Alpha virt. eigenvalues --    2.51160   2.52519   2.53649   2.54362   2.55131
 Alpha virt. eigenvalues --    2.57648   2.59351   2.60511   2.61505   2.62814
 Alpha virt. eigenvalues --    2.63925   2.67348   2.69282   2.69652   2.71514
 Alpha virt. eigenvalues --    2.71539   2.73744   2.76253   2.76490   2.77705
 Alpha virt. eigenvalues --    2.77999   2.78060   2.79410   2.83178   2.91122
 Alpha virt. eigenvalues --    2.93482   2.93805   2.94486   2.96068   2.96438
 Alpha virt. eigenvalues --    3.00817   3.03602   3.03879   3.04974   3.05423
 Alpha virt. eigenvalues --    3.06512   3.09411   3.09936   3.10072   3.14949
 Alpha virt. eigenvalues --    3.16472   3.20296   3.20489   3.27328   3.27617
 Alpha virt. eigenvalues --    3.29797   3.30469   3.60662   3.69390   3.71240
 Alpha virt. eigenvalues --    3.87359   3.91447   3.94289
          Condensed to atoms (all electrons):
 Mulliken charges:
               1
     1  C   -0.015897
     2  C   -0.019098
     3  C    0.022455
     4  C   -0.083989
     5  C    0.035361
     6  C   -0.028765
     7  C   -0.089166
     8  C    0.061219
     9  C   -0.015631
    10  C   -0.036001
    11  C   -0.028765
    12  C    0.035361
    13  C   -0.083989
    14  C    0.022455
    15  C   -0.019098
    16  C   -0.015897
    17  C    0.024265
    18  C   -0.097533
    19  C    0.080293
    20  C   -0.089166
    21  C    0.061219
    22  C   -0.015631
    23  C   -0.036001
    24  C    0.080293
    25  C   -0.097533
    26  C    0.024265
    27  H    0.031246
    28  H    0.030484
    29  H    0.017111
    30  H    0.015929
    31  H    0.014950
    32  H    0.024205
    33  H    0.015929
    34  H    0.017111
    35  H    0.030484
    36  H    0.031246
    37  H    0.017071
    38  H    0.011492
    39  H    0.014950
    40  H    0.024205
    41  H    0.011492
    42  H    0.017071
 Sum of Mulliken charges =  -0.00000
 Mulliken charges with hydrogens summed into heavy atoms:
               1
     1  C    0.015349
     2  C    0.011385
     3  C    0.039565
     4  C   -0.083989
     5  C    0.051290
     6  C   -0.028765
     7  C   -0.089166
     8  C    0.076169
     9  C    0.008574
    10  C   -0.036001
    11  C   -0.028765
    12  C    0.051290
    13  C   -0.083989
    14  C    0.039565
    15  C    0.011385
    16  C    0.015349
    17  C    0.041336
    18  C   -0.097533
    19  C    0.091785
    20  C   -0.089166
    21  C    0.076169
    22  C    0.008574
    23  C   -0.036001
    24  C    0.091785
    25  C   -0.097533
    26  C    0.041336
 Electronic spatial extent (au):  <R**2>=          12948.1881
 Charge=              0.0000 electrons
 Dipole moment (field-independent basis, Debye):
    X=             -0.0000    Y=             -0.0000    Z=             -0.0000  Tot=              0.0000
 Unable to Open any file for archive entry.
 1\1\GINC-NODE01\SP\RMP2-FC\CC-pVDZ\C26H16\XUHJ\11-Oct-2024\0\\#T MP2/c
 c-pVDZ symm=veryloose\\c1ccc2cc3c(ccc4c5cc6ccccc6cc5ccc34)cc2c1\\0,1\C
 ,0,-5.048772,-4.869467,0.\C,0,-3.829732,-5.608954,0.\C,0,-2.620509,-4.
 955924,0.\C,0,-2.556849,-3.528272,0.\C,0,-1.332663,-2.835894,0.\C,0,-1
 .25989,-1.438114,0.\C,0,-2.50066,-0.699417,0.\C,0,-2.449382,0.732156,0
 .\C,0,-1.25989,1.398232,0.\C,0,-0.001019,0.705363,0.\C,0,1.25989,1.438
 114,0.\C,0,1.332663,2.835894,0.\C,0,2.556849,3.528272,0.\C,0,2.620509,
 4.955924,0.\C,0,3.829732,5.608954,0.\C,0,5.048772,4.869467,0.\C,0,5.02
 784,3.495438,0.\C,0,3.789892,2.782142,0.\C,0,3.721858,1.380286,0.\C,0,
 2.50066,0.699417,0.\C,0,2.449382,-0.732156,0.\C,0,1.25989,-1.398232,0.
 \C,0,0.001019,-0.705363,0.\C,0,-3.721858,-1.380286,0.\C,0,-3.789892,-2
 .782142,0.\C,0,-5.02784,-3.495438,0.\H,0,-6.003092,-5.404416,0.\H,0,-3
 .863226,-6.70243,0.\H,0,-1.683451,-5.521604,0.\H,0,-0.422028,-3.436794
 ,0.\H,0,-3.392303,1.287108,0.\H,0,-1.272308,2.48841,0.\H,0,0.422028,3.
 436794,0.\H,0,1.683451,5.521604,0.\H,0,3.863226,6.70243,0.\H,0,6.00309
 2,5.404416,0.\H,0,5.961295,2.924088,0.\H,0,4.650862,0.801244,0.\H,0,3.
 392303,-1.287108,0.\H,0,1.272308,-2.48841,0.\H,0,-4.650862,-0.801244,0
 .\H,0,-5.961295,-2.924088,0.\\Version=ES64L-G16RevC.01\State=1-AG\HF=-
 994.0175573\MP2=-997.3795124\RMSD=1.751e-09\PG=C02H [SGH(C26H16)]\\@
 The archive entry for this job was punched.


 In the race for quality, there is no finish line.
                               -- David T. Kearns
 Job cpu time:       0 days  0 hours 10 minutes 24.3 seconds.
 Elapsed time:       0 days  0 hours  1 minutes 18.1 seconds.
 File lengths (MBytes):  RWF=  14981 Int=      0 D2E=      0 Chk=     14 Scr=      1
 Normal termination of Gaussian 16 at Fri Oct 11 15:13:49 2024.
