 Entering Gaussian System, Link 0=g16
 Initial command:
 /opt/g16/l1.exe "/tmp/Gau-2505987.inp" -scrdir="/tmp/"
 Entering Link 1 = /opt/g16/l1.exe PID=   2505989.
  
 Copyright (c) 1988-2019, Gaussian, Inc.  All Rights Reserved.
  
 This is part of the Gaussian(R) 16 program.  It is based on
 the Gaussian(R) 09 system (copyright 2009, Gaussian, Inc.),
 the Gaussian(R) 03 system (copyright 2003, Gaussian, Inc.),
 the Gaussian(R) 98 system (copyright 1998, Gaussian, Inc.),
 the Gaussian(R) 94 system (copyright 1995, Gaussian, Inc.),
 the Gaussian 92(TM) system (copyright 1992, Gaussian, Inc.),
 the Gaussian 90(TM) system (copyright 1990, Gaussian, Inc.),
 the Gaussian 88(TM) system (copyright 1988, Gaussian, Inc.),
 the Gaussian 86(TM) system (copyright 1986, Carnegie Mellon
 University), and the Gaussian 82(TM) system (copyright 1983,
 Carnegie Mellon University). Gaussian is a federally registered
 trademark of Gaussian, Inc.
  
 This software contains proprietary and confidential information,
 including trade secrets, belonging to Gaussian, Inc.
  
 This software is provided under written license and may be
 used, copied, transmitted, or stored only in accord with that
 written license.
  
 The following legend is applicable only to US Government
 contracts under FAR:
  
                    RESTRICTED RIGHTS LEGEND
  
 Use, reproduction and disclosure by the US Government is
 subject to restrictions as set forth in subparagraphs (a)
 and (c) of the Commercial Computer Software - Restricted
 Rights clause in FAR 52.227-19.
  
 Gaussian, Inc.
 340 Quinnipiac St., Bldg. 40, Wallingford CT 06492
  
  
 ---------------------------------------------------------------
 Warning -- This program may not be used in any manner that
 competes with the business of Gaussian, Inc. or will provide
 assistance to any competitor of Gaussian, Inc.  The licensee
 of this program is prohibited from giving any competitor of
 Gaussian, Inc. access to this program.  By using this program,
 the user acknowledges that Gaussian, Inc. is engaged in the
 business of creating and licensing software in the field of
 computational chemistry and represents and warrants to the
 licensee that it is not a competitor of Gaussian, Inc. and that
 it will not use this program in any manner prohibited above.
 ---------------------------------------------------------------
  

 Cite this work as:
 Gaussian 16, Revision C.01,
 M. J. Frisch, G. W. Trucks, H. B. Schlegel, G. E. Scuseria, 
 M. A. Robb, J. R. Cheeseman, G. Scalmani, V. Barone, 
 G. A. Petersson, H. Nakatsuji, X. Li, M. Caricato, A. V. Marenich, 
 J. Bloino, B. G. Janesko, R. Gomperts, B. Mennucci, H. P. Hratchian, 
 J. V. Ortiz, A. F. Izmaylov, J. L. Sonnenberg, D. Williams-Young, 
 F. Ding, F. Lipparini, F. Egidi, J. Goings, B. Peng, A. Petrone, 
 T. Henderson, D. Ranasinghe, V. G. Zakrzewski, J. Gao, N. Rega, 
 G. Zheng, W. Liang, M. Hada, M. Ehara, K. Toyota, R. Fukuda, 
 J. Hasegawa, M. Ishida, T. Nakajima, Y. Honda, O. Kitao, H. Nakai, 
 T. Vreven, K. Throssell, J. A. Montgomery, Jr., J. E. Peralta, 
 F. Ogliaro, M. J. Bearpark, J. J. Heyd, E. N. Brothers, K. N. Kudin, 
 V. N. Staroverov, T. A. Keith, R. Kobayashi, J. Normand, 
 K. Raghavachari, A. P. Rendell, J. C. Burant, S. S. Iyengar, 
 J. Tomasi, M. Cossi, J. M. Millam, M. Klene, C. Adamo, R. Cammi, 
 J. W. Ochterski, R. L. Martin, K. Morokuma, O. Farkas, 
 J. B. Foresman, and D. J. Fox, Gaussian, Inc., Wallingford CT, 2019.
 
 ******************************************
 Gaussian 16:  ES64L-G16RevC.01  3-Jul-2019
                11-Oct-2024 
 ******************************************
 %nprocshared=8
 Will use up to    8 processors via shared memory.
 %mem=10400MB
 -----------------------------
 #T MP2/cc-pVDZ symm=veryloose
 -----------------------------
 ----------------------------------------
 c1ccc2cc3c(cc2c1)c1ccccc1c1cc2ccccc2cc13
 ----------------------------------------
 Symbolic Z-matrix:
 Charge =  0 Multiplicity = 1
 C                     0.        5.69649  -1.5954 
 C                     0.        4.98844  -2.82889 
 C                     0.        3.6113   -2.8404 
 C                     0.        2.874    -1.62081 
 C                     0.        1.46458  -1.58558 
 C                     0.        0.73703  -0.39837 
 C                     0.        1.45353   0.85057 
 C                     0.        2.84584   0.82111 
 C                     0.        3.58708  -0.37851 
 C                     0.        5.01195  -0.40032 
 C                     0.        0.70996   2.12306 
 C                     0.        1.38364   3.36461 
 C                     0.        0.70053   4.57202 
 C                     0.       -0.70053   4.57202 
 C                     0.       -1.38364   3.36461 
 C                     0.       -0.70996   2.12306 
 C                     0.       -1.45353   0.85057 
 C                     0.       -2.84584   0.82111 
 C                     0.       -3.58708  -0.37851 
 C                     0.       -5.01195  -0.40032 
 C                     0.       -5.69649  -1.5954 
 C                     0.       -4.98844  -2.82889 
 C                     0.       -3.6113   -2.8404 
 C                     0.       -2.874    -1.62081 
 C                     0.       -1.46458  -1.58558 
 C                     0.       -0.73703  -0.39837 
 H                     0.        6.79048  -1.60147 
 H                     0.        5.54538  -3.77052 
 H                     0.        3.06283  -3.78759 
 H                     0.        0.94822  -2.54615 
 H                     0.        3.41556   1.75076 
 H                     0.        5.55342   0.55089 
 H                     0.        2.47327   3.3915 
 H                     0.        1.25652   5.51398 
 H                     0.       -1.25652   5.51398 
 H                     0.       -2.47327   3.3915 
 H                     0.       -3.41556   1.75076 
 H                     0.       -5.55342   0.55089 
 H                     0.       -6.79048  -1.60147 
 H                     0.       -5.54538  -3.77052 
 H                     0.       -3.06283  -3.78759 
 H                     0.       -0.94822  -2.54615 
 
                    Distance matrix (angstroms):
                    1          2          3          4          5
     1  C    0.000000
     2  C    1.422266   0.000000
     3  C    2.428586   1.377186   0.000000
     4  C    2.822600   2.435224   1.425137   0.000000
     5  C    4.231920   3.736763   2.486558   1.409863   0.000000
     6  C    5.101867   4.897127   3.771590   2.461904   1.392405
     7  C    4.897493   5.102353   4.275420   2.850515   2.436181
     8  C    3.737071   4.232404   3.740666   2.442079   2.774901
     9  C    2.435240   2.822791   2.462004   1.432402   2.441731
    10  C    1.377249   2.428690   2.813507   2.461791   3.740147
    11  C    6.220320   6.544248   5.749232   4.324302   3.784637
    12  C    6.572850   7.166175   6.592770   5.203419   4.950859
    13  C    7.937047   8.553346   7.963453   6.563164   6.204829
    14  C    8.885881   9.334766   8.575304   7.150411   6.527160
    15  C    8.644646   8.886105   7.965649   6.556058   5.711111
    16  C    7.407391   7.549404   6.580969   5.182785   4.299143
    17  C    7.556819   7.418719   6.267037   4.983496   3.801343
    18  C    8.877549   8.642825   7.423025   6.219288   4.936789
    19  C    9.362984   8.918738   7.607731   6.579429   5.193870
    20  C   10.774914  10.291048   8.961829   7.979835   6.584090
    21  C   11.392972  10.755885   9.390680   8.570524   7.161070
    22  C   10.755885   9.976872   8.599742   7.954708   6.571696
    23  C    9.390680   8.599742   7.222596   6.598977   5.228677
    24  C    8.570524   7.954708   6.598977   5.748000   4.338720
    25  C    7.161070   6.571696   5.228677   4.338720   2.929154
    26  C    6.543932   6.220002   4.987131   3.812335   2.501311
    27  H    1.094007   2.180345   3.412053   3.916524   5.325923
    28  H    2.180360   1.094005   2.146113   3.428927   4.628920
    29  H    3.426638   2.151062   1.094526   2.174993   2.720885
    30  H    4.842512   4.050094   2.679282   2.136558   1.090553
    31  H    4.049618   4.842225   4.595327   3.414780   3.864906
    32  H    2.151053   3.426681   3.908028   3.448993   4.613368
    33  H    5.937865   6.709642   6.334952   5.028295   5.078268
    34  H    8.381921   9.139515   8.679898   7.315833   7.102613
    35  H    9.944222  10.421275   9.669089   8.244171   7.603169
    36  H    9.571524   9.714439   8.709679   7.329153   6.346494
    37  H    9.707013   9.570804   8.393772   7.136243   5.911589
    38  H   11.452814  11.070396   9.772047   8.702739   7.335994
    39  H   12.486963  11.842691  10.475296   9.664495   8.255068
    40  H   11.450360  10.575821   9.203799   8.689491   7.342578
    41  H    9.029465   8.108139   6.741001   6.319877   5.034500
    42  H    6.712383   5.943388   4.569006   3.932639   2.596977
                    6          7          8          9         10
     6  C    0.000000
     7  C    1.439872   0.000000
     8  C    2.436024   1.392622   0.000000
     9  C    2.850119   2.462254   1.410156   0.000000
    10  C    4.274915   3.771877   2.486746   1.425032   0.000000
    11  C    2.521575   1.473812   2.501412   3.812572   4.987438
    12  C    3.818135   2.515012   2.933842   4.343519   5.228701
    13  C    4.970530   3.796870   4.321078   5.730621   6.581225
    14  C    5.174110   4.299904   5.161983   6.549154   7.573410
    15  C    4.319411   3.790771   4.935373   6.222466   7.421471
    16  C    2.907128   2.509961   3.786657   4.972164   6.253609
    17  C    2.521593   2.907062   4.299473   5.188298   6.585373
    18  C    3.784723   4.299473   5.691682   6.543822   7.952153
    19  C    4.324162   5.188298   6.543822   7.174166   8.599059
    20  C    5.748981   6.585373   7.952153   8.599059  10.023896
    21  C    6.543932   7.556819   8.877549   9.362984  10.774914
    22  C    6.220002   7.418719   8.642825   8.918738  10.291048
    23  C    4.987131   6.267037   7.423025   7.607731   8.961829
    24  C    3.812335   4.983496   6.219288   6.579429   7.979835
    25  C    2.501311   3.801343   4.936789   5.193870   6.584090
    26  C    1.474066   2.521593   3.784723   4.324162   5.748981
    27  H    6.171841   5.873288   4.629154   3.428901   2.146146
    28  H    5.872953   6.172334   5.326404   3.916711   3.412156
    29  H    4.110485   4.909413   4.613803   3.449148   3.908027
    30  H    2.158135   3.434101   3.865152   3.415000   4.595483
    31  H    3.434130   2.158676   1.090329   2.136169   2.678728
    32  H    4.909041   4.110827   2.721030   2.174919   1.094526
    33  H    4.168649   2.737914   2.597246   3.931100   4.563192
    34  H    5.935131   4.667569   4.954691   6.336641   7.005866
    35  H    6.239404   5.393677   6.233167   7.627710   8.618154
    36  H    4.966806   4.677187   5.907609   7.137288   8.390850
    37  H    4.675763   4.951601   6.330035   7.319205   8.697699
    38  H    6.361674   7.013357   8.403607   9.187632  10.608100
    39  H    7.623047   8.600941   9.936173  10.449371  11.863389
    40  H    7.130224   8.386850   9.565337   9.742054  11.082214
    41  H    5.091729   6.473793   7.493493   7.472822   8.756459
    42  H    2.730025   4.160064   5.072807   5.026693   6.334685
                   11         12         13         14         15
    11  C    0.000000
    12  C    1.412553   0.000000
    13  C    2.448984   1.387258   0.000000
    14  C    2.826111   2.408650   1.401054   0.000000
    15  C    2.434052   2.767280   2.408650   1.387258   0.000000
    16  C    1.419916   2.434052   2.826111   2.448984   1.412553
    17  C    2.509961   3.790771   4.299904   3.796870   2.515012
    18  C    3.786657   4.935373   5.161983   4.321078   2.933842
    19  C    4.972164   6.222466   6.549154   5.730621   4.343519
    20  C    6.253609   7.421471   7.573410   6.581225   5.228701
    21  C    7.407391   8.644646   8.885881   7.937047   6.572850
    22  C    7.549404   8.886105   9.334766   8.553346   7.166175
    23  C    6.580969   7.965649   8.575304   7.963453   6.592770
    24  C    5.182785   6.556058   7.150411   6.563164   5.203419
    25  C    4.299143   5.711111   6.527160   6.204829   4.950859
    26  C    2.907128   4.319411   5.174110   4.970530   3.818135
    27  H    7.130557   7.341382   8.671768   9.707070   9.564423
    28  H    7.623356   8.260156   9.647311  10.421582   9.945925
    29  H    6.361737   7.346674   8.686975   9.167655   8.421699
    30  H    4.675282   5.926778   7.122481   7.306625   6.354108
    31  H    2.731094   2.594844   3.915473   4.990159   5.063282
    32  H    5.092233   5.030318   6.302387   7.435144   7.485976
    33  H    2.172145   1.089964   2.129852   3.386243   3.857006
    34  H    3.434689   2.153124   1.093805   2.171936   3.404441
    35  H    3.919871   3.404441   2.171936   1.093805   2.153124
    36  H    3.426644   3.857006   3.386243   2.129852   1.089964
    37  H    4.142280   5.063282   4.990159   3.915473   2.594844
    38  H    6.457679   7.485976   7.435144   6.302387   5.030318
    39  H    8.374285   9.564423   9.707070   8.671768   7.341382
    40  H    8.594388   9.945925  10.421582   9.647311   8.260156
    41  H    7.012105   8.421699   9.167655   8.686975   7.346674
    42  H    4.954902   6.354108   7.306625   7.122481   5.926778
                   16         17         18         19         20
    16  C    0.000000
    17  C    1.473812   0.000000
    18  C    2.501412   1.392622   0.000000
    19  C    3.812572   2.462254   1.410156   0.000000
    20  C    4.987438   3.771877   2.486746   1.425032   0.000000
    21  C    6.220320   4.897493   3.737071   2.435240   1.377249
    22  C    6.544248   5.102353   4.232404   2.822791   2.428690
    23  C    5.749232   4.275420   3.740666   2.462004   2.813507
    24  C    4.324302   2.850515   2.442079   1.432402   2.461791
    25  C    3.784637   2.436181   2.774901   2.441731   3.740147
    26  C    2.521575   1.439872   2.436024   2.850119   4.274915
    27  H    8.374285   8.600941   9.936173  10.449371  11.863389
    28  H    8.594388   8.386850   9.565337   9.742054  11.082214
    29  H    7.012105   6.473793   7.493493   7.472822   8.756459
    30  H    4.954902   4.160064   5.072807   5.026693   6.334685
    31  H    4.142280   4.951601   6.330035   7.319205   8.697699
    32  H    6.457679   7.013357   8.403607   9.187632  10.608100
    33  H    3.426644   4.677187   5.907609   7.137288   8.390850
    34  H    3.919871   5.393677   6.233167   7.627710   8.618154
    35  H    3.434689   4.667569   4.954691   6.336641   7.005866
    36  H    2.172145   2.737914   2.597246   3.931100   4.563192
    37  H    2.731094   2.158676   1.090329   2.136169   2.678728
    38  H    5.092233   4.110827   2.721030   2.174919   1.094526
    39  H    7.130557   5.873288   4.629154   3.428901   2.146146
    40  H    7.623356   6.172334   5.326404   3.916711   3.412156
    41  H    6.361737   4.909413   4.613803   3.449148   3.908027
    42  H    4.675282   3.434101   3.865152   3.415000   4.595483
                   21         22         23         24         25
    21  C    0.000000
    22  C    1.422266   0.000000
    23  C    2.428586   1.377186   0.000000
    24  C    2.822600   2.435224   1.425137   0.000000
    25  C    4.231920   3.736763   2.486558   1.409863   0.000000
    26  C    5.101867   4.897127   3.771590   2.461904   1.392405
    27  H   12.486963  11.842691  10.475296   9.664495   8.255068
    28  H   11.450360  10.575821   9.203799   8.689491   7.342578
    29  H    9.029465   8.108139   6.741001   6.319877   5.034500
    30  H    6.712383   5.943388   4.569006   3.932639   2.596977
    31  H    9.707013   9.570804   8.393772   7.136243   5.911589
    32  H   11.452814  11.070396   9.772047   8.702739   7.335994
    33  H    9.571524   9.714439   8.709679   7.329153   6.346494
    34  H    9.944222  10.421275   9.669089   8.244171   7.603169
    35  H    8.381921   9.139515   8.679898   7.315833   7.102613
    36  H    5.937865   6.709642   6.334952   5.028295   5.078268
    37  H    4.049618   4.842225   4.595327   3.414780   3.864906
    38  H    2.151053   3.426681   3.908028   3.448993   4.613368
    39  H    1.094007   2.180345   3.412053   3.916524   5.325923
    40  H    2.180360   1.094005   2.146113   3.428927   4.628920
    41  H    3.426638   2.151062   1.094526   2.174993   2.720885
    42  H    4.842512   4.050094   2.679282   2.136558   1.090553
                   26         27         28         29         30
    26  C    0.000000
    27  H    7.623047   0.000000
    28  H    7.130224   2.501001   0.000000
    29  H    5.091729   4.321396   2.482615   0.000000
    30  H    2.730025   5.918136   4.757410   2.452083   0.000000
    31  H    4.675763   4.756841   5.917823   5.549565   4.954911
    32  H    6.361674   2.482536   4.321415   5.002543   5.549729
    33  H    4.966806   6.600607   7.793093   7.203250   6.130368
    34  H    6.239404   9.014122  10.227231   9.475331   8.066024
    35  H    5.935131  10.741686  11.509463  10.255529   8.356230
    36  H    4.168649  10.523630  10.751430   9.065738   6.852902
    37  H    3.434130  10.742466  10.525346   8.523069   6.124213
    38  H    4.909041  12.530141  11.910414   9.646869   7.201598
    39  H    6.171841  13.580952  12.525100  10.092901   7.796145
    40  H    5.872953  12.525100  11.090764   8.608225   6.608024
    41  H    4.110485  10.092901   8.608225   6.125652   4.198771
    42  H    2.158135   7.796145   6.608024   4.198771   1.896446
                   31         32         33         34         35
    31  H    0.000000
    32  H    2.451558   0.000000
    33  H    1.892069   4.190030   0.000000
    34  H    4.338582   6.564726   2.446514   0.000000
    35  H    5.999178   8.426596   4.291418   2.513036   0.000000
    36  H    6.113128   8.514507   4.946544   4.291418   2.446514
    37  H    6.831114   9.048880   6.113128   5.999178   4.338582
    38  H    9.048880  11.106840   8.514507   8.426596   6.564726
    39  H   10.742466  12.530141  10.523630  10.741686   9.014122
    40  H   10.525346  11.910414  10.751430  11.509463  10.227231
    41  H    8.523069   9.646869   9.065738  10.255529   9.475331
    42  H    6.124213   7.201598   6.852902   8.356230   8.066024
                   36         37         38         39         40
    36  H    0.000000
    37  H    1.892069   0.000000
    38  H    4.190030   2.451558   0.000000
    39  H    6.600607   4.756841   2.482536   0.000000
    40  H    7.793093   5.917823   4.321415   2.501001   0.000000
    41  H    7.203250   5.549565   5.002543   4.321396   2.482615
    42  H    6.130368   4.954911   5.549729   5.918136   4.757410
                   41         42
    41  H    0.000000
    42  H    2.452083   0.000000
 Framework group  C2V[SGV(C26H16)]
 Deg. of freedom    41
                         Standard orientation:                         
 ---------------------------------------------------------------------
 Center     Atomic      Atomic             Coordinates (Angstroms)
 Number     Number       Type             X           Y           Z
 ---------------------------------------------------------------------
      1          6           0        0.000000    5.696486   -1.595399
      2          6           0        0.000000    4.988436   -2.828892
      3          6           0        0.000000    3.611298   -2.840398
      4          6           0        0.000000    2.874000   -1.620805
      5          6           0        0.000000    1.464577   -1.585584
      6          6           0        0.000000    0.737033   -0.398372
      7          6           0        0.000000    1.453531    0.850572
      8          6           0        0.000000    2.845841    0.821112
      9          6           0        0.000000    3.587083   -0.378513
     10          6           0        0.000000    5.011948   -0.400316
     11          6           0        0.000000    0.709958    2.123058
     12          6           0        0.000000    1.383640    3.364613
     13          6           0        0.000000    0.700527    4.572024
     14          6           0       -0.000000   -0.700527    4.572024
     15          6           0       -0.000000   -1.383640    3.364613
     16          6           0       -0.000000   -0.709958    2.123058
     17          6           0       -0.000000   -1.453531    0.850572
     18          6           0       -0.000000   -2.845841    0.821112
     19          6           0       -0.000000   -3.587083   -0.378513
     20          6           0       -0.000000   -5.011948   -0.400316
     21          6           0       -0.000000   -5.696486   -1.595399
     22          6           0       -0.000000   -4.988436   -2.828892
     23          6           0       -0.000000   -3.611298   -2.840398
     24          6           0       -0.000000   -2.874000   -1.620805
     25          6           0       -0.000000   -1.464577   -1.585584
     26          6           0       -0.000000   -0.737033   -0.398372
     27          1           0        0.000000    6.790476   -1.601474
     28          1           0        0.000000    5.545382   -3.770517
     29          1           0        0.000000    3.062826   -3.787586
     30          1           0        0.000000    0.948223   -2.546149
     31          1           0        0.000000    3.415557    1.750758
     32          1           0        0.000000    5.553420    0.550891
     33          1           0        0.000000    2.473272    3.391497
     34          1           0        0.000000    1.256518    5.513981
     35          1           0       -0.000000   -1.256518    5.513981
     36          1           0       -0.000000   -2.473272    3.391497
     37          1           0       -0.000000   -3.415557    1.750758
     38          1           0       -0.000000   -5.553420    0.550891
     39          1           0       -0.000000   -6.790476   -1.601474
     40          1           0       -0.000000   -5.545382   -3.770517
     41          1           0       -0.000000   -3.062826   -3.787586
     42          1           0       -0.000000   -0.948223   -2.546149
 ---------------------------------------------------------------------
 Rotational constants (GHZ):           0.3038191           0.1462664           0.0987335
   444 basis functions,   970 primitive gaussians,   470 cartesian basis functions
    86 alpha electrons       86 beta electrons
       nuclear repulsion energy      1987.8808510054 Hartrees.
 NAtoms=   42 NActive=   42 NUniq=   21 SFac= 4.00D+00 NAtFMM=   60 NAOKFM=F Big=F
 ExpMin= 1.22D-01 ExpMax= 6.67D+03 ExpMxC= 2.28D+02 IAcc=3 IRadAn=         5 AccDes= 0.00D+00
 Harris functional with IExCor=  205 and IRadAn=       5 diagonalized for initial guess.
 HarFok:  IExCor=  205 AccDes= 0.00D+00 IRadAn=         5 IDoV= 1 UseB2=F ITyADJ=14
 ICtDFT=  3500011 ScaDFX=  1.000000  1.000000  1.000000  1.000000
 FoFCou: FMM=F IPFlag=           0 FMFlag=      100000 FMFlg1=           0
         NFxFlg=           0 DoJE=T BraDBF=F KetDBF=T FulRan=T
         wScrn=  0.000000 ICntrl=       500 IOpCl=  0 I1Cent=   200000004 NGrid=           0
         NMat0=    1 NMatS0=      1 NMatT0=    0 NMatD0=    1 NMtDS0=    0 NMtDT0=    0
 Petite list used in FoFCou.
 Initial guess orbital symmetries:
       Occupied  (A1) (B2) (B2) (A1) (B2) (A1) (B2) (A1) (B2) (A1)
                 (B2) (A1) (B2) (A1) (B2) (A1) (B2) (A1) (B2) (A1)
                 (B2) (A1) (B2) (A1) (A1) (B2) (A1) (B2) (A1) (A1)
                 (B2) (A1) (B2) (A1) (B2) (A1) (B2) (A1) (B2) (A1)
                 (B2) (A1) (A1) (B2) (A1) (B2) (B2) (A1) (A1) (A1)
                 (B2) (B2) (A1) (B2) (A1) (A1) (A1) (B2) (B2) (A1)
                 (B2) (B2) (A1) (A1) (B2) (B1) (B2) (A2) (A1) (B2)
                 (B1) (A1) (B2) (A1) (B1) (A1) (B2) (A2) (B1) (A2)
                 (B1) (A2) (B1) (A2) (A2) (B1)
       Virtual   (B1) (A2) (B1) (A2) (B1) (A2) (B1) (A2) (B1) (A2)
                 (A1) (B2) (A1) (A1) (B2) (A2) (A1) (B1) (B2) (B2)
                 (A1) (A1) (B2) (A1) (B2) (A1) (B2) (A2) (A1) (A1)
                 (B2) (B2) (A1) (B2) (B2) (A1) (B2) (A1) (A1) (B2)
                 (B2) (A1) (A1) (B2) (A1) (B2) (B2) (A1) (B2) (B2)
                 (A1) (A1) (A1) (B2) (B1) (A1) (A2) (B2) (A1) (B1)
                 (B2) (A1) (B2) (B1) (A1) (A2) (B2) (A1) (B2) (A1)
                 (B1) (B2) (A1) (B2) (B2) (A1) (A2) (A1) (B2) (A1)
                 (B2) (B1) (A1) (A2) (A1) (B2) (B1) (B2) (A1) (A1)
                 (B1) (A2) (A2) (B2) (B1) (B2) (A2) (B1) (A1) (A1)
                 (B2) (B1) (B2) (A1) (A2) (B2) (A1) (B2) (B1) (A1)
                 (A2) (A2) (B2) (A1) (B1) (B2) (A2) (B2) (A1) (B2)
                 (A1) (B1) (A2) (B1) (B2) (B1) (A1) (A2) (B2) (A2)
                 (A1) (A1) (B2) (B1) (A2) (B2) (A1) (B1) (B2) (A1)
                 (B2) (B1) (A1) (B2) (B1) (A2) (B2) (A1) (A2) (A1)
                 (B2) (B1) (A2) (B1) (A1) (A1) (B1) (A2) (B2) (A1)
                 (B2) (A2) (B1) (A2) (A1) (B1) (B2) (B2) (B1) (B2)
                 (A1) (A2) (A1) (A1) (B2) (A1) (B2) (A1) (B2) (B2)
                 (A1) (B2) (A1) (A2) (B2) (B1) (A1) (B2) (A1) (B2)
                 (A2) (A1) (B1) (A1) (A2) (B1) (A1) (B2) (B2) (A2)
                 (A1) (A1) (B2) (B2) (A1) (B1) (A1) (B1) (A1) (A2)
                 (A2) (B1) (A2) (A1) (B2) (A1) (B2) (A1) (A1) (B2)
                 (B2) (B2) (A1) (B2) (B1) (A1) (A2) (B2) (A1) (B2)
                 (A1) (B2) (B1) (A1) (A2) (A1) (B2) (B1) (A2) (B1)
                 (A2) (B2) (B1) (B1) (A2) (A1) (B2) (A2) (B1) (B2)
                 (A1) (A2) (A1) (B1) (B2) (A1) (B2) (B2) (A1) (A1)
                 (A2) (B2) (A1) (B1) (B2) (A1) (B2) (B2) (A2) (B2)
                 (A1) (A2) (B1) (A1) (B2) (B2) (B1) (A1) (A2) (B2)
                 (A1) (B2) (B2) (A1) (B1) (B2) (A1) (A2) (B2) (A1)
                 (B1) (B1) (A1) (A1) (A2) (B2) (A2) (B2) (A1) (B2)
                 (A1) (B2) (B2) (A1) (A2) (A1) (A2) (B2) (B2) (A1)
                 (B1) (B1) (B2) (A1) (A1) (A1) (B2) (A1) (A2) (A2)
                 (B2) (A1) (B2) (B2) (A1) (B2) (A1) (A1) (B2) (A1)
                 (B2) (A1) (A1) (B2) (B2) (B2) (B2) (A1) (B2) (A1)
                 (B2) (A1) (B2) (A1) (B2) (A1) (A1) (B2) (B2) (B2)
                 (A1) (B2) (A1) (B2) (B2) (B2) (A1) (B2)
 The electronic state of the initial guess is 1-A1.
 Integral accuracy reduced to 1.0D-05 until final iterations.
 Initial convergence to 1.0D-05 achieved.  Increase integral accuracy.
 SCF Done:  E(RHF) =  -994.023491888     A.U. after   17 cycles
            NFock= 17  Conv=0.18D-08     -V/T= 2.0012
 ExpMin= 1.22D-01 ExpMax= 6.67D+03 ExpMxC= 2.28D+02 IAcc=3 IRadAn=         5 AccDes= 0.00D+00
 HarFok:  IExCor=  205 AccDes= 0.00D+00 IRadAn=         5 IDoV=-2 UseB2=F ITyADJ=14
 ICtDFT= 12500011 ScaDFX=  1.000000  1.000000  1.000000  1.000000
 GSVD:  LWork=        -884 too small for GESVD, short by        3770 words or        3770 for optimal perf.
 NROrb=    418 NOA=    60 NOB=    60 NVA=   358 NVB=   358

 **** Warning!!: The largest alpha MO coefficient is  0.20680405D+02

 Estimated scratch disk usage=  2744134560 words.
 Actual    scratch disk usage=  2067147680 words.
 (rs|ai) integrals will be sorted in core.
 ANorm=    0.1521454663D+01
 E2 =    -0.3362557318D+01 EUMP2 =    -0.99738604920567D+03

 **********************************************************************

            Population analysis using the SCF Density.

 **********************************************************************

 Orbital symmetries:
       Occupied  (A1) (B2) (A1) (B2) (A1) (B2) (B2) (A1) (B2) (A1)
                 (B2) (A1) (B2) (A1) (B2) (A1) (B2) (A1) (A1) (B2)
                 (A1) (B2) (A1) (B2) (A1) (B2) (A1) (B2) (A1) (A1)
                 (B2) (A1) (B2) (A1) (B2) (A1) (B2) (A1) (B2) (A1)
                 (B2) (A1) (A1) (B2) (A1) (B2) (B2) (A1) (A1) (A1)
                 (B2) (B2) (A1) (B2) (A1) (B2) (A1) (B2) (A1) (B2)
                 (A1) (A1) (B2) (B2) (A1) (B1) (B2) (A1) (A2) (B2)
                 (B1) (A1) (B2) (A1) (B1) (A1) (B2) (A2) (B1) (A2)
                 (B1) (A2) (B1) (A2) (A2) (B1)
       Virtual   (B1) (A2) (B1) (A2) (B1) (A2) (B1) (A1) (A1) (B2)
                 (A2) (B2) (A1) (A1) (B2) (B2) (A1) (B2) (A1) (B2)
                 (B1) (A1) (A2) (A1) (B2) (B2) (A2) (A1) (B2) (B1)
                 (A1) (A1) (B2) (A1) (B2) (A1) (A2) (B2) (A1) (A1)
                 (B2) (B2) (A1) (A1) (B2) (B2) (A1) (A1) (B2) (A1)
                 (B2) (B2) (A1) (B2) (B1) (A1) (A2) (B2) (A1) (B1)
                 (A1) (B2) (B1) (B2) (A2) (A1) (B2) (A1) (B1) (B2)
                 (A1) (A1) (A2) (B2) (B2) (A2) (A1) (B1) (A1) (B2)
                 (A1) (B2) (B1) (B2) (A1) (A1) (B2) (A1) (B1) (A2)
                 (A2) (B2) (A1) (B1) (B2) (A2) (B1) (B2) (A1) (B1)
                 (B2) (A2) (A1) (B1) (B2) (A1) (A2) (A1) (A2) (B2)
                 (A1) (B2) (B2) (A1) (B1) (A2) (B2) (A1) (A1) (B1)
                 (B2) (A2) (B1) (B2) (B1) (A2) (A1) (B2) (A2) (A1)
                 (B2) (B2) (B1) (B2) (A1) (A1) (A2) (B2) (B1) (B2)
                 (A1) (A1) (B1) (B2) (B1) (A1) (B2) (A2) (A1) (A1)
                 (A2) (B2) (B1) (A2) (B2) (B1) (A1) (A1) (B2) (B1)
                 (A2) (A1) (B2) (A2) (B1) (B2) (A2) (B1) (B2) (A1)
                 (B2) (B1) (A1) (A2) (A1) (A1) (B2) (A1) (B2) (B2)
                 (A1) (B2) (A1) (B2) (A1) (A2) (B1) (B2) (A2) (B2)
                 (A1) (A1) (B1) (B1) (B2) (A2) (A1) (A1) (B2) (A1)
                 (A2) (A1) (B2) (B1) (A1) (B2) (A2) (B1) (A2) (A1)
                 (B1) (A1) (A2) (B2) (A1) (A1) (A1) (B2) (B2) (A1)
                 (B2) (B1) (B2) (A2) (A1) (B2) (B1) (B1) (A2) (B2)
                 (A1) (A2) (A1) (B1) (B2) (A1) (B2) (A2) (B2) (B2)
                 (A1) (A1) (B1) (A2) (A1) (B1) (B2) (A1) (A2) (B2)
                 (B1) (A1) (B2) (A2) (B1) (A1) (B2) (A1) (B2) (B2)
                 (A1) (A2) (B2) (B1) (A1) (B2) (A2) (B2) (A1) (B1)
                 (A1) (B2) (B2) (A2) (A1) (B2) (B1) (A1) (A2) (B2)
                 (A1) (B2) (B1) (B2) (A1) (B2) (A1) (A2) (B2) (A1)
                 (B1) (A1) (B1) (A1) (B2) (A2) (B2) (A2) (A1) (B2)
                 (A1) (B2) (B2) (A1) (A2) (A2) (A1) (B2) (B2) (A1)
                 (B1) (B2) (B1) (A1) (A1) (A1) (A2) (A2) (B2) (A1)
                 (B2) (A1) (B2) (B2) (A1) (B2) (A1) (B2) (A1) (B2)
                 (A1) (A1) (B2) (A1) (B2) (B2) (A1) (B2) (B2) (A1)
                 (B2) (A1) (B2) (A1) (A1) (B2) (B2) (A1) (B2) (B2)
                 (A1) (B2) (A1) (B2) (B2) (B2) (A1) (B2)
 The electronic state is 1-A1.
 Alpha  occ. eigenvalues --  -11.25827 -11.25793 -11.25743 -11.25690 -11.25673
 Alpha  occ. eigenvalues --  -11.25581 -11.25086 -11.25086 -11.24991 -11.24991
 Alpha  occ. eigenvalues --  -11.24707 -11.24707 -11.24665 -11.24665 -11.24574
 Alpha  occ. eigenvalues --  -11.24574 -11.24542 -11.24542 -11.24541 -11.24521
 Alpha  occ. eigenvalues --  -11.24521 -11.24515 -11.24515 -11.24483 -11.24404
 Alpha  occ. eigenvalues --  -11.24351  -1.19902  -1.17600  -1.16203  -1.12758
 Alpha  occ. eigenvalues --   -1.10779  -1.06626  -1.05470  -1.05024  -1.03200
 Alpha  occ. eigenvalues --   -1.01794  -0.98860  -0.97027  -0.96666  -0.88908
 Alpha  occ. eigenvalues --   -0.87020  -0.85844  -0.82528  -0.82171  -0.80697
 Alpha  occ. eigenvalues --   -0.80678  -0.78898  -0.72657  -0.71750  -0.70193
 Alpha  occ. eigenvalues --   -0.68987  -0.68393  -0.65725  -0.64687  -0.63825
 Alpha  occ. eigenvalues --   -0.63007  -0.62893  -0.60130  -0.60116  -0.59736
 Alpha  occ. eigenvalues --   -0.58787  -0.58388  -0.57940  -0.56733  -0.56645
 Alpha  occ. eigenvalues --   -0.56019  -0.53748  -0.53056  -0.53042  -0.51360
 Alpha  occ. eigenvalues --   -0.51289  -0.50563  -0.49186  -0.48746  -0.46861
 Alpha  occ. eigenvalues --   -0.46735  -0.46361  -0.44350  -0.40077  -0.38628
 Alpha  occ. eigenvalues --   -0.36442  -0.35229  -0.33074  -0.29326  -0.26707
 Alpha  occ. eigenvalues --   -0.26536
 Alpha virt. eigenvalues --    0.05716   0.06235   0.08669   0.12933   0.14428
 Alpha virt. eigenvalues --    0.16950   0.17594   0.17883   0.18258   0.18372
 Alpha virt. eigenvalues --    0.19180   0.19539   0.19553   0.21593   0.22090
 Alpha virt. eigenvalues --    0.23846   0.23854   0.24888   0.25758   0.26462
 Alpha virt. eigenvalues --    0.26581   0.27376   0.30288   0.33152   0.33422
 Alpha virt. eigenvalues --    0.34999   0.36654   0.37591   0.38433   0.38698
 Alpha virt. eigenvalues --    0.40857   0.42355   0.43299   0.44412   0.44621
 Alpha virt. eigenvalues --    0.44956   0.45479   0.45576   0.46146   0.47418
 Alpha virt. eigenvalues --    0.47503   0.48276   0.48986   0.51295   0.51759
 Alpha virt. eigenvalues --    0.52911   0.57326   0.58281   0.58481   0.61707
 Alpha virt. eigenvalues --    0.62299   0.63095   0.63967   0.64977   0.65189
 Alpha virt. eigenvalues --    0.66120   0.66732   0.66827   0.67122   0.67386
 Alpha virt. eigenvalues --    0.67870   0.68019   0.68836   0.68933   0.69390
 Alpha virt. eigenvalues --    0.69443   0.70409   0.70416   0.70433   0.71292
 Alpha virt. eigenvalues --    0.71337   0.72004   0.72064   0.72299   0.73089
 Alpha virt. eigenvalues --    0.73520   0.73696   0.73796   0.74487   0.74553
 Alpha virt. eigenvalues --    0.74934   0.74949   0.75011   0.76112   0.76291
 Alpha virt. eigenvalues --    0.76823   0.77145   0.77544   0.78109   0.78571
 Alpha virt. eigenvalues --    0.79336   0.79894   0.80201   0.80639   0.80693
 Alpha virt. eigenvalues --    0.82353   0.82672   0.84288   0.84780   0.86530
 Alpha virt. eigenvalues --    0.87029   0.87443   0.87745   0.88829   0.88862
 Alpha virt. eigenvalues --    0.88971   0.90037   0.90399   0.90411   0.91192
 Alpha virt. eigenvalues --    0.92315   0.92392   0.93140   0.94168   0.94722
 Alpha virt. eigenvalues --    0.96277   0.97038   0.97064   0.98238   0.99614
 Alpha virt. eigenvalues --    1.00310   1.00932   1.01481   1.02962   1.06257
 Alpha virt. eigenvalues --    1.08681   1.08748   1.09130   1.09579   1.10714
 Alpha virt. eigenvalues --    1.10886   1.11605   1.11961   1.12370   1.12531
 Alpha virt. eigenvalues --    1.12603   1.12726   1.14261   1.14275   1.15149
 Alpha virt. eigenvalues --    1.15619   1.16489   1.17199   1.17589   1.18593
 Alpha virt. eigenvalues --    1.18964   1.18980   1.20018   1.20864   1.21020
 Alpha virt. eigenvalues --    1.21183   1.21464   1.22129   1.22747   1.23102
 Alpha virt. eigenvalues --    1.23375   1.23449   1.24283   1.24710   1.25366
 Alpha virt. eigenvalues --    1.25495   1.26745   1.28802   1.29025   1.29138
 Alpha virt. eigenvalues --    1.29344   1.30291   1.31278   1.32369   1.32388
 Alpha virt. eigenvalues --    1.33688   1.34163   1.34234   1.34974   1.35737
 Alpha virt. eigenvalues --    1.37912   1.37998   1.38573   1.41562   1.49783
 Alpha virt. eigenvalues --    1.50772   1.51928   1.54043   1.55214   1.56919
 Alpha virt. eigenvalues --    1.58566   1.59889   1.60378   1.60730   1.61448
 Alpha virt. eigenvalues --    1.61575   1.62191   1.65529   1.66005   1.66229
 Alpha virt. eigenvalues --    1.66255   1.66314   1.67686   1.67942   1.69695
 Alpha virt. eigenvalues --    1.69782   1.71752   1.72958   1.73213   1.73607
 Alpha virt. eigenvalues --    1.73690   1.74277   1.74296   1.74837   1.75150
 Alpha virt. eigenvalues --    1.76885   1.77274   1.77692   1.79612   1.81348
 Alpha virt. eigenvalues --    1.82517   1.83650   1.84248   1.84701   1.85259
 Alpha virt. eigenvalues --    1.86518   1.86688   1.87321   1.87340   1.88479
 Alpha virt. eigenvalues --    1.89727   1.90317   1.90899   1.91141   1.91828
 Alpha virt. eigenvalues --    1.91943   1.92560   1.92567   1.93183   1.93197
 Alpha virt. eigenvalues --    1.93836   1.94185   1.95033   1.95314   1.96234
 Alpha virt. eigenvalues --    1.96522   1.97251   1.97589   1.98017   1.98167
 Alpha virt. eigenvalues --    1.99558   1.99641   2.01937   2.02594   2.02858
 Alpha virt. eigenvalues --    2.03922   2.04341   2.04594   2.05320   2.06260
 Alpha virt. eigenvalues --    2.06504   2.08192   2.08935   2.09553   2.10276
 Alpha virt. eigenvalues --    2.10295   2.10537   2.11151   2.11447   2.14184
 Alpha virt. eigenvalues --    2.14492   2.15246   2.15330   2.16037   2.16435
 Alpha virt. eigenvalues --    2.16581   2.16851   2.17642   2.17832   2.17837
 Alpha virt. eigenvalues --    2.19469   2.20213   2.21926   2.22117   2.23332
 Alpha virt. eigenvalues --    2.24547   2.26028   2.26774   2.27306   2.27416
 Alpha virt. eigenvalues --    2.28552   2.29859   2.31410   2.32164   2.32984
 Alpha virt. eigenvalues --    2.33061   2.35143   2.35441   2.36795   2.37341
 Alpha virt. eigenvalues --    2.38967   2.39257   2.40025   2.41639   2.42264
 Alpha virt. eigenvalues --    2.44182   2.47508   2.48433   2.51704   2.51936
 Alpha virt. eigenvalues --    2.52636   2.52781   2.53031   2.57226   2.57253
 Alpha virt. eigenvalues --    2.57336   2.59044   2.59224   2.63527   2.67559
 Alpha virt. eigenvalues --    2.68868   2.70291   2.70641   2.71433   2.71586
 Alpha virt. eigenvalues --    2.71856   2.73040   2.73928   2.76661   2.77109
 Alpha virt. eigenvalues --    2.78173   2.78283   2.79268   2.80763   2.91761
 Alpha virt. eigenvalues --    2.91953   2.93971   2.94512   2.95172   2.96786
 Alpha virt. eigenvalues --    2.98937   3.02921   3.03602   3.03907   3.08144
 Alpha virt. eigenvalues --    3.08732   3.09513   3.10402   3.11585   3.17613
 Alpha virt. eigenvalues --    3.18847   3.19928   3.27241   3.27758   3.31610
 Alpha virt. eigenvalues --    3.31970   3.37882   3.62729   3.67087   3.72968
 Alpha virt. eigenvalues --    3.88947   3.90620   3.98973
          Condensed to atoms (all electrons):
 Mulliken charges:
               1
     1  C   -0.015640
     2  C   -0.015419
     3  C    0.018689
     4  C   -0.086191
     5  C    0.046347
     6  C   -0.028598
     7  C   -0.027735
     8  C    0.046202
     9  C   -0.087782
    10  C    0.020247
    11  C   -0.036691
    12  C   -0.023197
    13  C    0.014303
    14  C    0.014303
    15  C   -0.023197
    16  C   -0.036691
    17  C   -0.027735
    18  C    0.046202
    19  C   -0.087782
    20  C    0.020247
    21  C   -0.015640
    22  C   -0.015419
    23  C    0.018689
    24  C   -0.086191
    25  C    0.046347
    26  C   -0.028598
    27  H    0.030363
    28  H    0.030283
    29  H    0.016220
    30  H    0.015059
    31  H    0.015601
    32  H    0.016406
    33  H    0.025728
    34  H    0.025804
    35  H    0.025804
    36  H    0.025728
    37  H    0.015601
    38  H    0.016406
    39  H    0.030363
    40  H    0.030283
    41  H    0.016220
    42  H    0.015059
 Sum of Mulliken charges =  -0.00000
 Mulliken charges with hydrogens summed into heavy atoms:
               1
     1  C    0.014723
     2  C    0.014864
     3  C    0.034910
     4  C   -0.086191
     5  C    0.061405
     6  C   -0.028598
     7  C   -0.027735
     8  C    0.061803
     9  C   -0.087782
    10  C    0.036653
    11  C   -0.036691
    12  C    0.002531
    13  C    0.040107
    14  C    0.040107
    15  C    0.002531
    16  C   -0.036691
    17  C   -0.027735
    18  C    0.061803
    19  C   -0.087782
    20  C    0.036653
    21  C    0.014723
    22  C    0.014864
    23  C    0.034910
    24  C   -0.086191
    25  C    0.061405
    26  C   -0.028598
 Electronic spatial extent (au):  <R**2>=          10232.5451
 Charge=              0.0000 electrons
 Dipole moment (field-independent basis, Debye):
    X=             -0.0000    Y=             -0.0000    Z=              0.0011  Tot=              0.0011
 Unable to Open any file for archive entry.
 1\1\GINC-NODE01\SP\RMP2-FC\CC-pVDZ\C26H16\XUHJ\11-Oct-2024\0\\#T MP2/c
 c-pVDZ symm=veryloose\\c1ccc2cc3c(cc2c1)c1ccccc1c1cc2ccccc2cc13\\0,1\C
 ,0,0.,5.696486,-1.595399\C,0,0.,4.988436,-2.828892\C,0,0.,3.611298,-2.
 840398\C,0,0.,2.874,-1.620805\C,0,0.,1.464577,-1.585584\C,0,0.,0.73703
 3,-0.398372\C,0,0.,1.453531,0.850572\C,0,0.,2.845841,0.821112\C,0,0.,3
 .587083,-0.378513\C,0,0.,5.011948,-0.400316\C,0,0.,0.709958,2.123058\C
 ,0,0.,1.38364,3.364613\C,0,0.,0.700527,4.572024\C,0,0.,-0.700527,4.572
 024\C,0,0.,-1.38364,3.364613\C,0,0.,-0.709958,2.123058\C,0,0.,-1.45353
 1,0.850572\C,0,0.,-2.845841,0.821112\C,0,0.,-3.587083,-0.378513\C,0,0.
 ,-5.011948,-0.400316\C,0,0.,-5.696486,-1.595399\C,0,0.,-4.988436,-2.82
 8892\C,0,0.,-3.611298,-2.840398\C,0,0.,-2.874,-1.620805\C,0,0.,-1.4645
 77,-1.585584\C,0,0.,-0.737033,-0.398372\H,0,0.,6.790476,-1.601474\H,0,
 0.,5.545382,-3.770517\H,0,0.,3.062826,-3.787586\H,0,0.,0.948223,-2.546
 149\H,0,0.,3.415557,1.750758\H,0,0.,5.55342,0.550891\H,0,0.,2.473272,3
 .391497\H,0,0.,1.256518,5.513981\H,0,0.,-1.256518,5.513981\H,0,0.,-2.4
 73272,3.391497\H,0,0.,-3.415557,1.750758\H,0,0.,-5.55342,0.550891\H,0,
 0.,-6.790476,-1.601474\H,0,0.,-5.545382,-3.770517\H,0,0.,-3.062826,-3.
 787586\H,0,0.,-0.948223,-2.546149\\Version=ES64L-G16RevC.01\State=1-A1
 \HF=-994.0234919\MP2=-997.3860492\RMSD=1.807e-09\PG=C02V [SGV(C26H16)]
 \\@
 The archive entry for this job was punched.


 GOD GAVE US TWO ENDS... ONE TO SIT ON...    
 AND THE OTHER TO THINK WITH...              
 YOUR SUCCESS DEPENDS UPON WHICH END YOU     
 USE THE MOST...                             
                                             
 IT'S A CASE OF HEADS YOU WIN TAILS YOU LOSE.
          SOURCE UNKNOWN(IT'S JUST AS WELL.) 
 Job cpu time:       0 days  0 hours 11 minutes  7.1 seconds.
 Elapsed time:       0 days  0 hours  1 minutes 23.4 seconds.
 File lengths (MBytes):  RWF=  15885 Int=      0 D2E=      0 Chk=     14 Scr=      1
 Normal termination of Gaussian 16 at Fri Oct 11 15:15:13 2024.
