 Entering Gaussian System, Link 0=g16
 Initial command:
 /opt/g16/l1.exe "/tmp/Gau-2508283.inp" -scrdir="/tmp/"
 Entering Link 1 = /opt/g16/l1.exe PID=   2508285.
  
 Copyright (c) 1988-2019, Gaussian, Inc.  All Rights Reserved.
  
 This is part of the Gaussian(R) 16 program.  It is based on
 the Gaussian(R) 09 system (copyright 2009, Gaussian, Inc.),
 the Gaussian(R) 03 system (copyright 2003, Gaussian, Inc.),
 the Gaussian(R) 98 system (copyright 1998, Gaussian, Inc.),
 the Gaussian(R) 94 system (copyright 1995, Gaussian, Inc.),
 the Gaussian 92(TM) system (copyright 1992, Gaussian, Inc.),
 the Gaussian 90(TM) system (copyright 1990, Gaussian, Inc.),
 the Gaussian 88(TM) system (copyright 1988, Gaussian, Inc.),
 the Gaussian 86(TM) system (copyright 1986, Carnegie Mellon
 University), and the Gaussian 82(TM) system (copyright 1983,
 Carnegie Mellon University). Gaussian is a federally registered
 trademark of Gaussian, Inc.
  
 This software contains proprietary and confidential information,
 including trade secrets, belonging to Gaussian, Inc.
  
 This software is provided under written license and may be
 used, copied, transmitted, or stored only in accord with that
 written license.
  
 The following legend is applicable only to US Government
 contracts under FAR:
  
                    RESTRICTED RIGHTS LEGEND
  
 Use, reproduction and disclosure by the US Government is
 subject to restrictions as set forth in subparagraphs (a)
 and (c) of the Commercial Computer Software - Restricted
 Rights clause in FAR 52.227-19.
  
 Gaussian, Inc.
 340 Quinnipiac St., Bldg. 40, Wallingford CT 06492
  
  
 ---------------------------------------------------------------
 Warning -- This program may not be used in any manner that
 competes with the business of Gaussian, Inc. or will provide
 assistance to any competitor of Gaussian, Inc.  The licensee
 of this program is prohibited from giving any competitor of
 Gaussian, Inc. access to this program.  By using this program,
 the user acknowledges that Gaussian, Inc. is engaged in the
 business of creating and licensing software in the field of
 computational chemistry and represents and warrants to the
 licensee that it is not a competitor of Gaussian, Inc. and that
 it will not use this program in any manner prohibited above.
 ---------------------------------------------------------------
  

 Cite this work as:
 Gaussian 16, Revision C.01,
 M. J. Frisch, G. W. Trucks, H. B. Schlegel, G. E. Scuseria, 
 M. A. Robb, J. R. Cheeseman, G. Scalmani, V. Barone, 
 G. A. Petersson, H. Nakatsuji, X. Li, M. Caricato, A. V. Marenich, 
 J. Bloino, B. G. Janesko, R. Gomperts, B. Mennucci, H. P. Hratchian, 
 J. V. Ortiz, A. F. Izmaylov, J. L. Sonnenberg, D. Williams-Young, 
 F. Ding, F. Lipparini, F. Egidi, J. Goings, B. Peng, A. Petrone, 
 T. Henderson, D. Ranasinghe, V. G. Zakrzewski, J. Gao, N. Rega, 
 G. Zheng, W. Liang, M. Hada, M. Ehara, K. Toyota, R. Fukuda, 
 J. Hasegawa, M. Ishida, T. Nakajima, Y. Honda, O. Kitao, H. Nakai, 
 T. Vreven, K. Throssell, J. A. Montgomery, Jr., J. E. Peralta, 
 F. Ogliaro, M. J. Bearpark, J. J. Heyd, E. N. Brothers, K. N. Kudin, 
 V. N. Staroverov, T. A. Keith, R. Kobayashi, J. Normand, 
 K. Raghavachari, A. P. Rendell, J. C. Burant, S. S. Iyengar, 
 J. Tomasi, M. Cossi, J. M. Millam, M. Klene, C. Adamo, R. Cammi, 
 J. W. Ochterski, R. L. Martin, K. Morokuma, O. Farkas, 
 J. B. Foresman, and D. J. Fox, Gaussian, Inc., Wallingford CT, 2019.
 
 ******************************************
 Gaussian 16:  ES64L-G16RevC.01  3-Jul-2019
                11-Oct-2024 
 ******************************************
 %nprocshared=8
 Will use up to    8 processors via shared memory.
 %mem=8800MB
 -----------------------------
 #T MP2/cc-pVDZ symm=veryloose
 -----------------------------
 ----------------------------------
 c1ccc2c(c1)ccc1c2ccc2c3ccccc3ccc21
 ----------------------------------
 Symbolic Z-matrix:
 Charge =  0 Multiplicity = 1
 C                     0.        5.72921   0.3855 
 C                     0.        5.04465   1.61923 
 C                     0.        3.66075   1.65402 
 C                     0.        2.89012   0.46321 
 C                     0.        3.59073  -0.78081 
 C                     0.        5.00779  -0.79314 
 C                     0.        2.84126  -1.99809 
 C                     0.        1.47574  -1.99304 
 C                     0.        0.72391  -0.77097 
 C                     0.        1.43598   0.45926 
 C                     0.        0.68569   1.66829 
 C                     0.       -0.68569   1.66829 
 C                     0.       -1.43598   0.45926 
 C                     0.       -2.89012   0.46321 
 C                     0.       -3.66075   1.65402 
 C                     0.       -5.04465   1.61923 
 C                     0.       -5.72921   0.3855 
 C                     0.       -5.00779  -0.79314 
 C                     0.       -3.59073  -0.78081 
 C                     0.       -2.84126  -1.99809 
 C                     0.       -1.47574  -1.99304 
 C                     0.       -0.72391  -0.77097 
 H                     0.        6.82294   0.36491 
 H                     0.        5.60966   2.55604 
 H                     0.        3.16513   2.6258 
 H                     0.        5.52274  -1.75886 
 H                     0.        3.38635  -2.9469 
 H                     0.        0.95416  -2.94986 
 H                     0.        1.20308   2.62814 
 H                     0.       -1.20308   2.62814 
 H                     0.       -3.16513   2.6258 
 H                     0.       -5.60966   2.55604 
 H                     0.       -6.82294   0.36491 
 H                     0.       -5.52274  -1.75886 
 H                     0.       -3.38635  -2.9469 
 H                     0.       -0.95416  -2.94986 
 
                    Distance matrix (angstroms):
                    1          2          3          4          5
     1  C    0.000000
     2  C    1.410931   0.000000
     3  C    2.426460   1.384338   0.000000
     4  C    2.840159   2.445074   1.418417   0.000000
     5  C    2.435856   2.806078   2.435838   1.427737   0.000000
     6  C    1.381899   2.412652   2.793405   2.462302   1.417112
     7  C    3.744569   4.235558   3.742925   2.461783   1.429504
     8  C    4.873341   5.077948   4.251502   2.834359   2.437758
     9  C    5.137169   4.937796   3.808619   2.493120   2.866839
    10  C    4.293874   3.790523   2.525287   1.454149   2.486109
    11  C    5.204104   4.359234   2.975091   2.512317   3.799653
    12  C    6.541910   5.730550   4.346462   3.773414   4.928071
    13  C    7.165570   6.583618   5.234887   4.326096   5.177406
    14  C    8.619684   8.018537   6.658220   5.780238   6.599165
    15  C    9.475260   8.705467   7.321496   6.658220   7.649336
    16  C   10.844272  10.089298   8.705467   8.018537   8.962698
    17  C   11.458430  10.844272   9.475260   8.619684   9.392638
    18  C   10.801501  10.337844   9.007337   7.997208   8.598527
    19  C    9.392638   8.962698   7.649336   6.599165   7.181460
    20  C    8.895757   8.675974   7.457479   6.237520   6.546161
    21  C    7.587414   7.454125   6.299569   5.009379   5.209476
    22  C    6.555929   6.244139   5.010565   3.818949   4.314649
    23  H    1.093917   2.176152   3.414859   3.934047   3.429262
    24  H    2.173830   1.094003   2.147529   3.431593   3.900080
    25  H    3.404923   2.132084   1.090870   2.180011   3.433095
    26  H    2.154276   3.411755   3.887774   3.445039   2.165469
    27  H    4.073556   4.857926   4.609091   3.446018   2.175706
    28  H    5.824585   6.132593   5.340538   3.923897   3.414131
    29  H    5.051269   3.971842   2.643677   2.744637   4.161948
    30  H    7.286030   6.328671   4.960421   4.630471   5.882314
    31  H    9.172149   8.271254   6.894705   6.429840   7.566151
    32  H   11.544750  10.695412   9.314185   8.753635   9.786811
    33  H   12.552170  11.933690  10.562646   9.713554  10.476505
    34  H   11.454468  11.094200   9.797156   8.701370   9.165805
    35  H    9.705585   9.588079   8.416058   7.143030   7.305586
    36  H    7.469407   7.540705   6.518669   5.140765   5.035947
                    6          7          8          9         10
     6  C    0.000000
     7  C    2.479065   0.000000
     8  C    3.730294   1.365523   0.000000
     9  C    4.283937   2.447245   1.434823   0.000000
    10  C    3.785016   2.830792   2.452616   1.421438   0.000000
    11  C    4.973850   4.253098   3.745600   2.439557   1.422917
    12  C    6.202770   5.087410   4.251721   2.817259   2.441974
    13  C    6.564342   4.932877   3.806816   2.485667   2.871950
    14  C    7.997208   6.237520   5.009379   3.818949   4.326096
    15  C    9.007337   7.457479   6.299569   5.010565   5.234887
    16  C   10.337844   8.675974   7.454125   6.244139   6.583618
    17  C   10.801501   8.895757   7.587414   6.555929   7.165570
    18  C   10.015576   7.940996   6.593628   5.731739   6.564342
    19  C    8.598527   6.546161   5.209476   4.314649   5.177406
    20  C    7.940996   5.682514   4.317003   3.770443   4.932877
    21  C    6.593628   4.317003   2.951486   2.516332   3.806816
    22  C    5.731739   3.770443   2.516332   1.447816   2.485667
    23  H    2.153101   4.630069   5.844005   6.203900   5.387789
    24  H    3.402828   5.329552   6.146814   5.910963   4.670772
    25  H    3.883884   4.635222   4.918098   4.183011   2.771982
    26  H    1.094439   2.692136   4.053769   4.899465   4.649917
    27  H    2.695871   1.094238   2.135479   3.438499   3.925028
    28  H    4.591663   2.113530   1.089753   2.191026   3.442996
    29  H    5.116732   4.907714   4.629216   3.432716   2.181353
    30  H    7.090847   6.144814   5.341480   3.907330   3.415947
    31  H    8.859218   7.580043   6.547622   5.163587   5.085673
    32  H   11.133155   9.599898   8.420034   7.154229   7.351015
    33  H   11.887268   9.948891   8.627166   7.631847   8.259452
    34  H   10.574720   8.367421   7.002403   6.324286   7.303685
    35  H    8.666039   6.299471   4.954776   4.650689   5.903957
    36  H    6.340048   3.912930   2.611497   2.750178   4.163508
                   11         12         13         14         15
    11  C    0.000000
    12  C    1.371382   0.000000
    13  C    2.441974   1.422917   0.000000
    14  C    3.773414   2.512317   1.454149   0.000000
    15  C    4.346462   2.975091   2.525287   1.418417   0.000000
    16  C    5.730550   4.359234   3.790523   2.445074   1.384338
    17  C    6.541910   5.204104   4.293874   2.840159   2.426460
    18  C    6.202770   4.973850   3.785016   2.462302   2.793405
    19  C    4.928071   3.799653   2.486109   1.427737   2.435838
    20  C    5.087410   4.253098   2.830792   2.461783   3.742925
    21  C    4.251721   3.745600   2.452616   2.834359   4.251502
    22  C    2.817259   2.439557   1.421438   2.493120   3.808619
    23  H    6.274123   7.620914   8.259452   9.713554  10.562646
    24  H    5.003352   6.357633   7.351015   8.753635   9.314185
    25  H    2.657900   3.968077   5.085673   6.429840   6.894705
    26  H    5.928108   7.091547   7.303685   8.701370   9.797156
    27  H    5.347292   6.154795   5.903957   7.143030   8.416058
    28  H    4.625949   4.900656   4.163508   5.140765   6.518669
    29  H    1.090415   2.118674   3.415947   4.630471   4.960421
    30  H    2.118674   1.090415   2.181353   2.744637   2.643677
    31  H    3.968077   2.657900   2.771982   2.180011   1.090870
    32  H    6.357633   5.003352   4.670772   3.431593   2.147529
    33  H    7.620914   6.274123   5.387789   3.934047   3.414859
    34  H    7.091547   5.928108   4.649917   3.445039   3.887774
    35  H    6.154795   5.347292   3.925028   3.446018   4.609091
    36  H    4.900656   4.625949   3.442996   3.923897   5.340538
                   16         17         18         19         20
    16  C    0.000000
    17  C    1.410931   0.000000
    18  C    2.412652   1.381899   0.000000
    19  C    2.806078   2.435856   1.417112   0.000000
    20  C    4.235558   3.744569   2.479065   1.429504   0.000000
    21  C    5.077948   4.873341   3.730294   2.437758   1.365523
    22  C    4.937796   5.137169   4.283937   2.866839   2.447245
    23  H   11.933690  12.552170  11.887268  10.476505   9.948891
    24  H   10.695412  11.544750  11.133155   9.786811   9.599898
    25  H    8.271254   9.172149   8.859218   7.566151   7.580043
    26  H   11.094200  11.454468  10.574720   9.165805   8.367421
    27  H    9.588079   9.705585   8.666039   7.305586   6.299471
    28  H    7.540705   7.469407   6.340048   5.035947   3.912930
    29  H    6.328671   7.286030   7.090847   5.882314   6.144814
    30  H    3.971842   5.051269   5.116732   4.161948   4.907714
    31  H    2.132084   3.404923   3.883884   3.433095   4.635222
    32  H    1.094003   2.173830   3.402828   3.900080   5.329552
    33  H    2.176152   1.093917   2.153101   3.429262   4.630069
    34  H    3.411755   2.154276   1.094439   2.165469   2.692136
    35  H    4.857926   4.073556   2.695871   2.175706   1.094238
    36  H    6.132593   5.824585   4.591663   3.414131   2.113530
                   21         22         23         24         25
    21  C    0.000000
    22  C    1.434823   0.000000
    23  H    8.627166   7.631847   0.000000
    24  H    8.420034   7.154229   2.504617   0.000000
    25  H    6.547622   5.163587   4.300141   2.445523   0.000000
    26  H    7.002403   6.324286   2.490160   4.315774   4.978314
    27  H    4.954776   4.650689   4.772647   5.935096   5.577086
    28  H    2.611497   2.750178   6.740198   7.210311   5.998032
    29  H    5.341480   3.907330   6.058465   4.407163   1.962046
    30  H    4.629216   3.432716   8.339021   6.813123   4.368214
    31  H    4.918098   4.183011  10.240758   8.775063   6.330258
    32  H    6.146814   5.910963  12.624202  11.219314   8.775063
    33  H    5.844005   6.203900  13.645876  12.624202  10.240758
    34  H    4.053769   4.899465  12.527020  11.939375   9.731618
    35  H    2.135479   3.438499  10.733015  10.545636   8.600979
    36  H    1.089753   2.191026   8.454044   8.567294   6.932279
                   26         27         28         29         30
    26  H    0.000000
    27  H    2.444503   0.000000
    28  H    4.721277   2.432197   0.000000
    29  H    6.156725   5.987295   5.583553   0.000000
    30  H    8.030103   7.221078   5.980617   2.406168   0.000000
    31  H    9.731618   8.600979   6.932279   4.368214   1.962046
    32  H   11.939375  10.545636   8.567294   6.813123   4.407163
    33  H   12.527020  10.733015   8.454044   8.339021   6.058465
    34  H   11.045486   8.987958   6.585491   8.030103   6.156725
    35  H    8.987958   6.772702   4.340508   7.221078   5.987295
    36  H    6.585491   4.340508   1.908312   5.980617   5.583553
                   31         32         33         34         35
    31  H    0.000000
    32  H    2.445523   0.000000
    33  H    4.300141   2.504617   0.000000
    34  H    4.978314   4.315774   2.490160   0.000000
    35  H    5.577086   5.935096   4.772647   2.444503   0.000000
    36  H    5.998032   7.210311   6.740198   4.721277   2.432197
                   36
    36  H    0.000000
 Framework group  C2V[SGV(C22H14)]
 Deg. of freedom    35
                         Standard orientation:                         
 ---------------------------------------------------------------------
 Center     Atomic      Atomic             Coordinates (Angstroms)
 Number     Number       Type             X           Y           Z
 ---------------------------------------------------------------------
      1          6           0        0.000000    5.729215    0.385497
      2          6           0        0.000000    5.044649    1.619229
      3          6           0        0.000000    3.660748    1.654020
      4          6           0        0.000000    2.890119    0.463206
      5          6           0        0.000000    3.590730   -0.780811
      6          6           0        0.000000    5.007788   -0.793141
      7          6           0        0.000000    2.841257   -1.998092
      8          6           0        0.000000    1.475743   -1.993037
      9          6           0        0.000000    0.723908   -0.770965
     10          6           0        0.000000    1.435975    0.459257
     11          6           0        0.000000    0.685691    1.668293
     12          6           0       -0.000000   -0.685691    1.668293
     13          6           0       -0.000000   -1.435975    0.459257
     14          6           0       -0.000000   -2.890119    0.463206
     15          6           0       -0.000000   -3.660748    1.654020
     16          6           0       -0.000000   -5.044649    1.619229
     17          6           0       -0.000000   -5.729215    0.385497
     18          6           0       -0.000000   -5.007788   -0.793141
     19          6           0       -0.000000   -3.590730   -0.780811
     20          6           0       -0.000000   -2.841257   -1.998092
     21          6           0       -0.000000   -1.475743   -1.993037
     22          6           0       -0.000000   -0.723908   -0.770965
     23          1           0        0.000000    6.822938    0.364906
     24          1           0        0.000000    5.609657    2.556037
     25          1           0        0.000000    3.165129    2.625801
     26          1           0        0.000000    5.522743   -1.758862
     27          1           0        0.000000    3.386351   -2.946896
     28          1           0        0.000000    0.954156   -2.949859
     29          1           0        0.000000    1.203084    2.628142
     30          1           0       -0.000000   -1.203084    2.628142
     31          1           0       -0.000000   -3.165129    2.625801
     32          1           0       -0.000000   -5.609657    2.556037
     33          1           0       -0.000000   -6.822938    0.364906
     34          1           0       -0.000000   -5.522743   -1.758862
     35          1           0       -0.000000   -3.386351   -2.946896
     36          1           0       -0.000000   -0.954156   -2.949859
 ---------------------------------------------------------------------
 Rotational constants (GHZ):           0.9592706           0.1478536           0.1281081
   378 basis functions,   824 primitive gaussians,   400 cartesian basis functions
    73 alpha electrons       73 beta electrons
       nuclear repulsion energy      1531.4003108450 Hartrees.
 NAtoms=   36 NActive=   36 NUniq=   18 SFac= 4.00D+00 NAtFMM=   60 NAOKFM=F Big=F
 ExpMin= 1.22D-01 ExpMax= 6.67D+03 ExpMxC= 2.28D+02 IAcc=3 IRadAn=         5 AccDes= 0.00D+00
 Harris functional with IExCor=  205 and IRadAn=       5 diagonalized for initial guess.
 HarFok:  IExCor=  205 AccDes= 0.00D+00 IRadAn=         5 IDoV= 1 UseB2=F ITyADJ=14
 ICtDFT=  3500011 ScaDFX=  1.000000  1.000000  1.000000  1.000000
 FoFCou: FMM=F IPFlag=           0 FMFlag=      100000 FMFlg1=           0
         NFxFlg=           0 DoJE=T BraDBF=F KetDBF=T FulRan=T
         wScrn=  0.000000 ICntrl=       500 IOpCl=  0 I1Cent=   200000004 NGrid=           0
         NMat0=    1 NMatS0=      1 NMatT0=    0 NMatD0=    1 NMtDS0=    0 NMtDT0=    0
 Petite list used in FoFCou.
 Initial guess orbital symmetries:
       Occupied  (A1) (B2) (B2) (A1) (B2) (A1) (B2) (A1) (B2) (A1)
                 (B2) (A1) (B2) (A1) (B2) (A1) (B2) (A1) (B2) (A1)
                 (A1) (B2) (A1) (B2) (A1) (B2) (A1) (B2) (A1) (A1)
                 (B2) (B2) (A1) (A1) (A1) (B2) (B2) (B2) (A1) (B2)
                 (A1) (A1) (A1) (B2) (B2) (B2) (A1) (A1) (A1) (B2)
                 (A1) (B2) (A1) (B2) (B1) (A1) (B2) (A1) (A2) (B2)
                 (B2) (A1) (B1) (A1) (B2) (A2) (B1) (A2) (B1) (B1)
                 (A2) (A2) (B1)
       Virtual   (A2) (B1) (B1) (A2) (A2) (B1) (B1) (A2) (A2) (A1)
                 (A1) (B2) (B2) (A1) (A1) (B1) (B2) (B2) (A1) (A1)
                 (B2) (A2) (A1) (B2) (A1) (B2) (A1) (A1) (B2) (B2)
                 (A1) (A1) (B2) (A1) (B2) (B2) (A1) (B2) (B2) (A1)
                 (B2) (A1) (A1) (B2) (A1) (B2) (B2) (A1) (B1) (A2)
                 (B2) (A1) (B2) (B1) (A1) (B1) (B2) (A1) (B2) (A2)
                 (A1) (A1) (B2) (A2) (A1) (B2) (B2) (A1) (B2) (B1)
                 (A1) (A1) (A1) (B2) (A1) (B1) (A2) (B2) (B1) (A2)
                 (B2) (B1) (A2) (B1) (B2) (B1) (A1) (A1) (A2) (B2)
                 (A1) (B2) (A1) (A2) (B2) (A1) (A2) (B1) (B2) (B2)
                 (A1) (A2) (A1) (B2) (B1) (B1) (A2) (B2) (B1) (A2)
                 (A1) (B2) (B2) (A1) (A2) (A1) (A1) (B2) (B2) (B1)
                 (A1) (B1) (B2) (A1) (A2) (B1) (B2) (A1) (A2) (B1)
                 (A1) (A2) (B2) (B1) (B1) (B2) (A2) (A1) (A1) (A2)
                 (B1) (A1) (B2) (B1) (A1) (B2) (A2) (B2) (A1) (B2)
                 (B2) (A1) (A1) (B2) (B2) (A1) (B2) (A1) (B2) (B1)
                 (A2) (B2) (A2) (A1) (A1) (B2) (B1) (A1) (A1) (A2)
                 (A1) (B2) (B1) (A1) (B2) (A2) (B1) (B2) (A1) (B1)
                 (A2) (A1) (A1) (B2) (A2) (A1) (B2) (B2) (A1) (B1)
                 (B2) (A1) (B2) (B2) (A1) (B1) (B2) (A2) (A2) (A1)
                 (B1) (A1) (B2) (A2) (B1) (A1) (A2) (B2) (A1) (B1)
                 (A2) (B1) (B2) (A1) (B2) (A1) (B2) (A2) (A1) (B1)
                 (A1) (B2) (B2) (A1) (B1) (A2) (B2) (B1) (A2) (A1)
                 (B2) (B2) (A1) (B2) (A1) (A1) (B2) (B2) (A2) (B1)
                 (A1) (A2) (B2) (A1) (B2) (A1) (B2) (B1) (A1) (B1)
                 (A1) (B2) (B2) (A2) (A2) (B2) (A2) (A1) (A1) (B2)
                 (B2) (A1) (A1) (B1) (B2) (B2) (B1) (A1) (A1) (A2)
                 (B2) (A1) (A2) (B2) (A1) (B2) (A1) (B2) (A1) (B2)
                 (A1) (B2) (A1) (B2) (A1) (B2) (A1) (B2) (A1) (B2)
                 (A1) (B2) (B2) (A1) (B2) (A1) (B2) (A1) (B2) (B2)
                 (A1) (B2) (B2) (A1) (B2)
 The electronic state of the initial guess is 1-A1.
 Integral accuracy reduced to 1.0D-05 until final iterations.
 Initial convergence to 1.0D-05 achieved.  Increase integral accuracy.
 SCF Done:  E(RHF) =  -841.369405814     A.U. after   16 cycles
            NFock= 16  Conv=0.65D-08     -V/T= 2.0013
 ExpMin= 1.22D-01 ExpMax= 6.67D+03 ExpMxC= 2.28D+02 IAcc=3 IRadAn=         5 AccDes= 0.00D+00
 HarFok:  IExCor=  205 AccDes= 0.00D+00 IRadAn=         5 IDoV=-2 UseB2=F ITyADJ=14
 ICtDFT= 12500011 ScaDFX=  1.000000  1.000000  1.000000  1.000000
 GSVD:  LWork=        -660 too small for GESVD, short by        2750 words or        2750 for optimal perf.
 NROrb=    356 NOA=    51 NOB=    51 NVA=   305 NVB=   305

 **** Warning!!: The largest alpha MO coefficient is  0.16071130D+02

 Estimated scratch disk usage=  1534002105 words.
 Actual    scratch disk usage=  1155766713 words.
 (rs|ai) integrals will be sorted in core.
 ANorm=    0.1452724416D+01
 E2 =    -0.2845528796D+01 EUMP2 =    -0.84421493460966D+03

 **********************************************************************

            Population analysis using the SCF Density.

 **********************************************************************

 Orbital symmetries:
       Occupied  (A1) (B2) (A1) (B2) (A1) (B2) (B2) (A1) (B2) (A1)
                 (B2) (A1) (B2) (A1) (A1) (B2) (A1) (B2) (A1) (B2)
                 (A1) (B2) (A1) (B2) (A1) (B2) (A1) (B2) (A1) (A1)
                 (B2) (B2) (A1) (A1) (B2) (A1) (B2) (B2) (A1) (B2)
                 (A1) (A1) (A1) (B2) (B2) (A1) (B2) (A1) (A1) (B2)
                 (A1) (B2) (A1) (B2) (B2) (B1) (A1) (A1) (A2) (B2)
                 (B2) (A1) (B1) (A1) (B2) (B1) (A2) (A2) (B1) (B1)
                 (A2) (A2) (B1)
       Virtual   (B1) (A2) (B1) (A2) (A2) (B1) (A1) (A1) (B2) (B2)
                 (A1) (A1) (B2) (B2) (A1) (B1) (A2) (B2) (A1) (A1)
                 (A2) (B2) (B2) (A1) (B1) (B2) (A1) (A1) (B2) (A1)
                 (B2) (A2) (B2) (A1) (A1) (A1) (B2) (B2) (B2) (B2)
                 (A1) (A1) (A1) (B2) (A1) (A1) (B2) (B1) (B2) (A1)
                 (A2) (B2) (B1) (B1) (B2) (A1) (A1) (A2) (A2) (A1)
                 (B2) (B2) (A1) (B2) (A1) (B1) (B2) (A1) (B1) (B2)
                 (A1) (A1) (B2) (A2) (A1) (B1) (B2) (A1) (A2) (B2)
                 (A2) (B1) (B2) (B1) (B1) (A1) (B2) (A2) (A1) (A1)
                 (A2) (B2) (B2) (A1) (A2) (B2) (B1) (A1) (B2) (A1)
                 (A2) (B2) (A1) (B1) (B2) (B1) (A2) (B1) (A2) (A1)
                 (B2) (B2) (A1) (B2) (A2) (B2) (A1) (B2) (A1) (B2)
                 (B1) (A1) (A1) (B1) (A1) (B2) (B1) (A2) (A1) (A2)
                 (B1) (B2) (A2) (A1) (B2) (B1) (B1) (A1) (A2) (B2)
                 (A1) (A1) (A2) (B2) (B1) (B2) (B1) (B2) (A2) (A1)
                 (A1) (B2) (B2) (A1) (B2) (A1) (B2) (A1) (B2) (A2)
                 (B1) (B2) (A1) (B2) (A2) (A1) (A1) (B1) (A1) (A2)
                 (A1) (B1) (B2) (A2) (A1) (B2) (B1) (A2) (B1) (B2)
                 (A1) (A2) (A1) (B2) (A1) (A1) (B2) (B1) (A1) (B2)
                 (B2) (B2) (B1) (A2) (A1) (B1) (A2) (A2) (B2) (B1)
                 (A1) (B2) (A1) (B2) (A1) (A2) (B2) (A1) (A1) (B1)
                 (B1) (B2) (A1) (A2) (B2) (A1) (B2) (A1) (B1) (A2)
                 (B2) (B1) (B2) (A2) (A1) (B2) (A1) (B1) (A2) (B2)
                 (A1) (B2) (A1) (B2) (A1) (A1) (B2) (A2) (B2) (A1)
                 (B2) (B1) (A2) (A1) (B2) (A1) (B1) (B2) (A1) (B1)
                 (B2) (A1) (B2) (A2) (A2) (B2) (A2) (A1) (A1) (B2)
                 (B2) (A1) (A1) (B2) (B1) (B1) (B2) (A1) (A2) (A1)
                 (A2) (B2) (A1) (B2) (B2) (A1) (A1) (B2) (A1) (B2)
                 (A1) (B2) (B2) (A1) (B2) (A1) (A1) (A1) (B2) (B2)
                 (A1) (B2) (B2) (A1) (B2) (A1) (B2) (B2) (A1) (B2)
                 (A1) (B2) (B2) (A1) (B2)
 The electronic state is 1-A1.
 Alpha  occ. eigenvalues --  -11.25653 -11.25581 -11.25495 -11.25484 -11.25411
 Alpha  occ. eigenvalues --  -11.25409 -11.25023 -11.25023 -11.24580 -11.24580
 Alpha  occ. eigenvalues --  -11.24571 -11.24571 -11.24533 -11.24533 -11.24510
 Alpha  occ. eigenvalues --  -11.24451 -11.24451 -11.24430 -11.24429 -11.24386
 Alpha  occ. eigenvalues --  -11.24386 -11.24375  -1.19528  -1.17421  -1.14104
 Alpha  occ. eigenvalues --   -1.09987  -1.09481  -1.05675  -1.03678  -1.02225
 Alpha  occ. eigenvalues --   -0.99766  -0.97778  -0.97205  -0.87132  -0.85970
 Alpha  occ. eigenvalues --   -0.85666  -0.83759  -0.81291  -0.80661  -0.73946
 Alpha  occ. eigenvalues --   -0.72662  -0.71748  -0.69505  -0.68115  -0.67327
 Alpha  occ. eigenvalues --   -0.64123  -0.64019  -0.62661  -0.60515  -0.59629
 Alpha  occ. eigenvalues --   -0.59316  -0.58915  -0.57704  -0.56668  -0.56124
 Alpha  occ. eigenvalues --   -0.55603  -0.55313  -0.53091  -0.52861  -0.52041
 Alpha  occ. eigenvalues --   -0.49469  -0.48649  -0.48594  -0.47730  -0.45759
 Alpha  occ. eigenvalues --   -0.43272  -0.43256  -0.38727  -0.35518  -0.34028
 Alpha  occ. eigenvalues --   -0.30792  -0.27803  -0.26849
 Alpha virt. eigenvalues --    0.07130   0.07285   0.09978   0.12977   0.14866
 Alpha virt. eigenvalues --    0.17963   0.18308   0.18405   0.18636   0.19929
 Alpha virt. eigenvalues --    0.20713   0.22106   0.22839   0.24306   0.24383
 Alpha virt. eigenvalues --    0.24890   0.25304   0.26334   0.27720   0.30038
 Alpha virt. eigenvalues --    0.32356   0.33631   0.36202   0.38236   0.39275
 Alpha virt. eigenvalues --    0.39935   0.40012   0.41411   0.42329   0.43954
 Alpha virt. eigenvalues --    0.44288   0.45525   0.45604   0.46426   0.47085
 Alpha virt. eigenvalues --    0.48048   0.49251   0.51512   0.54094   0.55740
 Alpha virt. eigenvalues --    0.56377   0.57989   0.59341   0.63960   0.65014
 Alpha virt. eigenvalues --    0.65168   0.65366   0.65460   0.66358   0.66566
 Alpha virt. eigenvalues --    0.66925   0.66988   0.68273   0.68836   0.68866
 Alpha virt. eigenvalues --    0.69589   0.69930   0.70525   0.71292   0.71658
 Alpha virt. eigenvalues --    0.71722   0.72487   0.72527   0.73279   0.73476
 Alpha virt. eigenvalues --    0.73652   0.74020   0.74364   0.75512   0.75528
 Alpha virt. eigenvalues --    0.75531   0.75788   0.76052   0.77096   0.77238
 Alpha virt. eigenvalues --    0.77362   0.77553   0.78152   0.79316   0.80571
 Alpha virt. eigenvalues --    0.81253   0.81473   0.82780   0.83636   0.86519
 Alpha virt. eigenvalues --    0.86553   0.87051   0.87828   0.88224   0.89292
 Alpha virt. eigenvalues --    0.89874   0.91411   0.92022   0.92541   0.92914
 Alpha virt. eigenvalues --    0.93037   0.93712   0.94357   0.94727   0.94974
 Alpha virt. eigenvalues --    0.97630   0.98441   0.99133   1.00358   1.01308
 Alpha virt. eigenvalues --    1.01983   1.05614   1.07499   1.09038   1.09318
 Alpha virt. eigenvalues --    1.09893   1.12250   1.12364   1.12866   1.13254
 Alpha virt. eigenvalues --    1.13698   1.13729   1.14773   1.14868   1.15471
 Alpha virt. eigenvalues --    1.15674   1.16206   1.16660   1.17206   1.19128
 Alpha virt. eigenvalues --    1.19437   1.19577   1.19678   1.20415   1.22395
 Alpha virt. eigenvalues --    1.22737   1.22747   1.23518   1.23716   1.23898
 Alpha virt. eigenvalues --    1.24793   1.26350   1.26594   1.26923   1.27989
 Alpha virt. eigenvalues --    1.28252   1.30608   1.30715   1.31295   1.31327
 Alpha virt. eigenvalues --    1.32738   1.33023   1.35106   1.35291   1.36207
 Alpha virt. eigenvalues --    1.37941   1.38093   1.41483   1.43981   1.52820
 Alpha virt. eigenvalues --    1.53792   1.54582   1.55999   1.58588   1.60284
 Alpha virt. eigenvalues --    1.60331   1.60844   1.63088   1.63098   1.63504
 Alpha virt. eigenvalues --    1.63512   1.64025   1.66243   1.67186   1.67554
 Alpha virt. eigenvalues --    1.68961   1.70649   1.72344   1.72663   1.72943
 Alpha virt. eigenvalues --    1.74235   1.74369   1.74636   1.75191   1.77210
 Alpha virt. eigenvalues --    1.78377   1.80283   1.80405   1.81126   1.82079
 Alpha virt. eigenvalues --    1.85355   1.85422   1.86089   1.87160   1.87306
 Alpha virt. eigenvalues --    1.88316   1.90298   1.90306   1.90383   1.90510
 Alpha virt. eigenvalues --    1.91094   1.91337   1.91883   1.92769   1.93166
 Alpha virt. eigenvalues --    1.93356   1.94636   1.94869   1.95460   1.96198
 Alpha virt. eigenvalues --    1.97988   1.98633   1.98639   2.00170   2.00455
 Alpha virt. eigenvalues --    2.01651   2.02640   2.02830   2.03454   2.04095
 Alpha virt. eigenvalues --    2.05200   2.05636   2.07018   2.07432   2.07669
 Alpha virt. eigenvalues --    2.09640   2.10993   2.11138   2.11776   2.11852
 Alpha virt. eigenvalues --    2.12230   2.12802   2.14795   2.15309   2.16087
 Alpha virt. eigenvalues --    2.17009   2.17041   2.17920   2.19695   2.20249
 Alpha virt. eigenvalues --    2.21023   2.21391   2.22481   2.23023   2.24408
 Alpha virt. eigenvalues --    2.24797   2.24852   2.26768   2.27562   2.27815
 Alpha virt. eigenvalues --    2.31566   2.32678   2.32934   2.33747   2.34458
 Alpha virt. eigenvalues --    2.36215   2.36998   2.37239   2.39072   2.43441
 Alpha virt. eigenvalues --    2.43944   2.44803   2.44829   2.46218   2.48310
 Alpha virt. eigenvalues --    2.50753   2.53548   2.55127   2.56400   2.56890
 Alpha virt. eigenvalues --    2.58862   2.60667   2.62810   2.68456   2.68878
 Alpha virt. eigenvalues --    2.69306   2.70986   2.71600   2.73595   2.74667
 Alpha virt. eigenvalues --    2.75044   2.79897   2.80562   2.82824   2.83038
 Alpha virt. eigenvalues --    2.83070   2.86405   2.94793   2.95283   2.99853
 Alpha virt. eigenvalues --    2.99886   3.01560   3.04174   3.04187   3.06187
 Alpha virt. eigenvalues --    3.07575   3.07583   3.12127   3.12691   3.14238
 Alpha virt. eigenvalues --    3.20987   3.22706   3.27406   3.29842   3.31079
 Alpha virt. eigenvalues --    3.66765   3.69587   3.79265   3.89606   3.98812
          Condensed to atoms (all electrons):
 Mulliken charges:
               1
     1  C   -0.012438
     2  C    0.005729
     3  C   -0.029769
     4  C   -0.035727
     5  C   -0.100726
     6  C    0.028705
     7  C    0.058308
     8  C   -0.017734
     9  C   -0.033454
    10  C   -0.031904
    11  C    0.006638
    12  C    0.006638
    13  C   -0.031904
    14  C   -0.035727
    15  C   -0.029769
    16  C    0.005729
    17  C   -0.012438
    18  C    0.028705
    19  C   -0.100726
    20  C    0.058308
    21  C   -0.017734
    22  C   -0.033454
    23  H    0.029590
    24  H    0.027548
    25  H    0.025213
    26  H    0.018559
    27  H    0.016556
    28  H    0.024795
    29  H    0.020108
    30  H    0.020108
    31  H    0.025213
    32  H    0.027548
    33  H    0.029590
    34  H    0.018559
    35  H    0.016556
    36  H    0.024795
 Sum of Mulliken charges =  -0.00000
 Mulliken charges with hydrogens summed into heavy atoms:
               1
     1  C    0.017152
     2  C    0.033278
     3  C   -0.004555
     4  C   -0.035727
     5  C   -0.100726
     6  C    0.047264
     7  C    0.074864
     8  C    0.007061
     9  C   -0.033454
    10  C   -0.031904
    11  C    0.026746
    12  C    0.026746
    13  C   -0.031904
    14  C   -0.035727
    15  C   -0.004555
    16  C    0.033278
    17  C    0.017152
    18  C    0.047264
    19  C   -0.100726
    20  C    0.074864
    21  C    0.007061
    22  C   -0.033454
 Electronic spatial extent (au):  <R**2>=           7923.7870
 Charge=             -0.0000 electrons
 Dipole moment (field-independent basis, Debye):
    X=             -0.0000    Y=             -0.0000    Z=              0.0485  Tot=              0.0485
 Unable to Open any file for archive entry.
 1\1\GINC-NODE01\SP\RMP2-FC\CC-pVDZ\C22H14\XUHJ\11-Oct-2024\0\\#T MP2/c
 c-pVDZ symm=veryloose\\c1ccc2c(c1)ccc1c2ccc2c3ccccc3ccc21\\0,1\C,0,0.,
 5.729215,0.385497\C,0,0.,5.044649,1.619229\C,0,0.,3.660748,1.65402\C,0
 ,0.,2.890119,0.463206\C,0,0.,3.59073,-0.780811\C,0,0.,5.007788,-0.7931
 41\C,0,0.,2.841257,-1.998092\C,0,0.,1.475743,-1.993037\C,0,0.,0.723908
 ,-0.770965\C,0,0.,1.435975,0.459257\C,0,0.,0.685691,1.668293\C,0,0.,-0
 .685691,1.668293\C,0,0.,-1.435975,0.459257\C,0,0.,-2.890119,0.463206\C
 ,0,0.,-3.660748,1.65402\C,0,0.,-5.044649,1.619229\C,0,0.,-5.729215,0.3
 85497\C,0,0.,-5.007788,-0.793141\C,0,0.,-3.59073,-0.780811\C,0,0.,-2.8
 41257,-1.998092\C,0,0.,-1.475743,-1.993037\C,0,0.,-0.723908,-0.770965\
 H,0,0.,6.822938,0.364906\H,0,0.,5.609657,2.556037\H,0,0.,3.165129,2.62
 5801\H,0,0.,5.522743,-1.758862\H,0,0.,3.386351,-2.946896\H,0,0.,0.9541
 56,-2.949859\H,0,0.,1.203084,2.628142\H,0,0.,-1.203084,2.628142\H,0,0.
 ,-3.165129,2.625801\H,0,0.,-5.609657,2.556037\H,0,0.,-6.822938,0.36490
 6\H,0,0.,-5.522743,-1.758862\H,0,0.,-3.386351,-2.946896\H,0,0.,-0.9541
 56,-2.949859\\Version=ES64L-G16RevC.01\State=1-A1\HF=-841.3694058\MP2=
 -844.2149346\RMSD=6.533e-09\PG=C02V [SGV(C22H14)]\\@
 The archive entry for this job was punched.


 We find comfort among those who agree with us -- growth among those who don't.
 -- Frank A. Clark
 Job cpu time:       0 days  0 hours  6 minutes 15.9 seconds.
 Elapsed time:       0 days  0 hours  0 minutes 47.0 seconds.
 File lengths (MBytes):  RWF=   8902 Int=      0 D2E=      0 Chk=     10 Scr=      1
 Normal termination of Gaussian 16 at Fri Oct 11 15:16:08 2024.
