 Entering Gaussian System, Link 0=g16
 Initial command:
 /opt/g16/l1.exe "/tmp/Gau-2509504.inp" -scrdir="/tmp/"
 Entering Link 1 = /opt/g16/l1.exe PID=   2509506.
  
 Copyright (c) 1988-2019, Gaussian, Inc.  All Rights Reserved.
  
 This is part of the Gaussian(R) 16 program.  It is based on
 the Gaussian(R) 09 system (copyright 2009, Gaussian, Inc.),
 the Gaussian(R) 03 system (copyright 2003, Gaussian, Inc.),
 the Gaussian(R) 98 system (copyright 1998, Gaussian, Inc.),
 the Gaussian(R) 94 system (copyright 1995, Gaussian, Inc.),
 the Gaussian 92(TM) system (copyright 1992, Gaussian, Inc.),
 the Gaussian 90(TM) system (copyright 1990, Gaussian, Inc.),
 the Gaussian 88(TM) system (copyright 1988, Gaussian, Inc.),
 the Gaussian 86(TM) system (copyright 1986, Carnegie Mellon
 University), and the Gaussian 82(TM) system (copyright 1983,
 Carnegie Mellon University). Gaussian is a federally registered
 trademark of Gaussian, Inc.
  
 This software contains proprietary and confidential information,
 including trade secrets, belonging to Gaussian, Inc.
  
 This software is provided under written license and may be
 used, copied, transmitted, or stored only in accord with that
 written license.
  
 The following legend is applicable only to US Government
 contracts under FAR:
  
                    RESTRICTED RIGHTS LEGEND
  
 Use, reproduction and disclosure by the US Government is
 subject to restrictions as set forth in subparagraphs (a)
 and (c) of the Commercial Computer Software - Restricted
 Rights clause in FAR 52.227-19.
  
 Gaussian, Inc.
 340 Quinnipiac St., Bldg. 40, Wallingford CT 06492
  
  
 ---------------------------------------------------------------
 Warning -- This program may not be used in any manner that
 competes with the business of Gaussian, Inc. or will provide
 assistance to any competitor of Gaussian, Inc.  The licensee
 of this program is prohibited from giving any competitor of
 Gaussian, Inc. access to this program.  By using this program,
 the user acknowledges that Gaussian, Inc. is engaged in the
 business of creating and licensing software in the field of
 computational chemistry and represents and warrants to the
 licensee that it is not a competitor of Gaussian, Inc. and that
 it will not use this program in any manner prohibited above.
 ---------------------------------------------------------------
  

 Cite this work as:
 Gaussian 16, Revision C.01,
 M. J. Frisch, G. W. Trucks, H. B. Schlegel, G. E. Scuseria, 
 M. A. Robb, J. R. Cheeseman, G. Scalmani, V. Barone, 
 G. A. Petersson, H. Nakatsuji, X. Li, M. Caricato, A. V. Marenich, 
 J. Bloino, B. G. Janesko, R. Gomperts, B. Mennucci, H. P. Hratchian, 
 J. V. Ortiz, A. F. Izmaylov, J. L. Sonnenberg, D. Williams-Young, 
 F. Ding, F. Lipparini, F. Egidi, J. Goings, B. Peng, A. Petrone, 
 T. Henderson, D. Ranasinghe, V. G. Zakrzewski, J. Gao, N. Rega, 
 G. Zheng, W. Liang, M. Hada, M. Ehara, K. Toyota, R. Fukuda, 
 J. Hasegawa, M. Ishida, T. Nakajima, Y. Honda, O. Kitao, H. Nakai, 
 T. Vreven, K. Throssell, J. A. Montgomery, Jr., J. E. Peralta, 
 F. Ogliaro, M. J. Bearpark, J. J. Heyd, E. N. Brothers, K. N. Kudin, 
 V. N. Staroverov, T. A. Keith, R. Kobayashi, J. Normand, 
 K. Raghavachari, A. P. Rendell, J. C. Burant, S. S. Iyengar, 
 J. Tomasi, M. Cossi, J. M. Millam, M. Klene, C. Adamo, R. Cammi, 
 J. W. Ochterski, R. L. Martin, K. Morokuma, O. Farkas, 
 J. B. Foresman, and D. J. Fox, Gaussian, Inc., Wallingford CT, 2019.
 
 ******************************************
 Gaussian 16:  ES64L-G16RevC.01  3-Jul-2019
                11-Oct-2024 
 ******************************************
 %nprocshared=8
 Will use up to    8 processors via shared memory.
 %mem=10400MB
 -----------------------------
 #T MP2/cc-pVDZ symm=veryloose
 -----------------------------
 ----------------------------------------
 c1ccc2c(c1)c1ccccc1c1c3ccccc3c3ccccc3c21
 ----------------------------------------
 Symbolic Z-matrix:
 Charge =  0 Multiplicity = 1
 C                    -0.0264   -3.72582  -2.82655 
 C                     0.45158  -2.5691   -3.46471 
 C                     0.50744  -1.37266  -2.76807 
 C                     0.08983  -1.27278  -1.41614 
 C                    -0.21547  -2.48424  -0.72935 
 C                    -0.32607  -3.68145  -1.47507 
 C                    -0.21547  -2.48424   0.72935 
 C                    -0.32607  -3.68145   1.47507 
 C                    -0.0264   -3.72582   2.82655 
 C                     0.45158  -2.5691    3.46471 
 C                     0.50744  -1.37266   2.76807 
 C                     0.08983  -1.27278   1.41614 
 C                     0.        0.        0.69959 
 C                    -0.08983   1.27278   1.41614 
 C                    -0.50744   1.37266   2.76807 
 C                    -0.45158   2.5691    3.46471 
 C                     0.0264    3.72582   2.82655 
 C                     0.32607   3.68145   1.47507 
 C                     0.21547   2.48424   0.72935 
 C                     0.21547   2.48424  -0.72935 
 C                     0.32607   3.68145  -1.47507 
 C                     0.0264    3.72582  -2.82655 
 C                    -0.45158   2.5691   -3.46471 
 C                    -0.50744   1.37266  -2.76807 
 C                    -0.08983   1.27278  -1.41614 
 C                     0.        0.       -0.69959 
 H                    -0.1101   -4.66833  -3.37535 
 H                     0.78725  -2.60935  -4.50507 
 H                     0.91666  -0.49562  -3.26712 
 H                    -0.61134  -4.60707  -0.97356 
 H                    -0.61134  -4.60707   0.97356 
 H                    -0.1101   -4.66833   3.37535 
 H                     0.78725  -2.60935   4.50507 
 H                     0.91666  -0.49562   3.26712 
 H                    -0.91666   0.49562   3.26712 
 H                    -0.78725   2.60935   4.50507 
 H                     0.1101    4.66833   3.37535 
 H                     0.61134   4.60707   0.97356 
 H                     0.61134   4.60707  -0.97356 
 H                     0.1101    4.66833  -3.37535 
 H                    -0.78725   2.60935  -4.50507 
 H                    -0.91666   0.49562  -3.26712 
 
                    Distance matrix (angstroms):
                    1          2          3          4          5
     1  C    0.000000
     2  C    1.404889   0.000000
     3  C    2.413662   1.385604   0.000000
     4  C    2.831991   2.451114   1.418484   0.000000
     5  C    2.444490   2.816801   2.431993   1.425663   0.000000
     6  C    1.385014   2.408467   2.774359   2.445017   1.414794
     7  C    3.771159   4.247615   3.740333   2.482724   1.458690
     8  C    4.312271   5.122836   4.901983   3.785987   2.510973
     9  C    5.653094   6.414541   6.092787   4.902169   3.771159
    10  C    6.414541   6.929414   6.346815   5.062996   4.247615
    11  C    6.092787   6.346815   5.536134   4.206177   3.740333
    12  C    4.902169   5.062996   4.206177   2.832270   2.482724
    13  C    5.129922   4.913818   3.763823   2.470698   2.873975
    14  C    6.556705   6.235046   4.986244   3.812337   4.328286
    15  C    7.584564   7.436711   6.262231   4.986244   5.214672
    16  C    8.909921   8.673731   7.436711   6.235046   6.571306
    17  C    9.353459   8.909921   7.584564   6.556705   7.160146
    18  C    8.572964   7.967840   6.601597   5.741013   6.570263
    19  C    7.160146   6.571306   5.214672   4.328286   5.196079
    20  C    6.559083   5.751017   4.372333   3.821342   4.987129
    21  C    7.537791   6.560772   5.220030   4.960206   6.234181
    22  C    7.451827   6.341456   5.121457   5.194160   6.559083
    23  C    6.341456   5.216975   4.116128   4.387463   5.751017
    24  C    5.121457   4.116128   2.926903   3.030314   4.372333
    25  C    5.194160   4.387463   3.030314   2.551894   3.821342
    26  C    4.290263   3.801323   2.533825   1.463377   2.493742
    27  H    1.093852   2.174911   3.407577   3.925332   3.432591
    28  H    2.173932   1.093917   2.150554   3.437201   3.908609
    29  H    3.393772   2.134169   1.088910   2.171127   3.417111
    30  H    2.133621   3.389538   3.864370   3.435841   2.173195
    31  H    3.944559   4.998131   5.070782   4.161701   2.750093
    32  H    6.273661   7.176948   6.998880   5.876055   4.650790
    33  H    7.460643   7.976948   7.382836   6.110116   5.331063
    34  H    6.961062   7.059261   6.112297   4.818769   4.605224
    35  H    7.466317   7.522108   6.476266   5.106187   5.034178
    36  H    9.719358   9.584803   8.392329   7.134487   7.326028
    37  H   10.437618   9.964103   8.625135   7.632529   8.253103
    38  H    9.180663   8.439262   7.054624   6.368301   7.339629
    39  H    8.560220   7.597947   6.244057   5.919503   7.143523
    40  H    8.413177   7.246033   6.084424   6.255854   7.633252
    41  H    6.597780   5.425256   4.533188   5.038028   6.366135
    42  H    4.336727   3.362087   2.401578   2.750709   3.976370
                    6          7          8          9         10
     6  C    0.000000
     7  C    2.510973   0.000000
     8  C    2.950140   1.414794   0.000000
     9  C    4.312271   2.444490   1.385014   0.000000
    10  C    5.122836   2.816801   2.408467   1.404889   0.000000
    11  C    4.901983   2.431993   2.774359   2.413662   1.385604
    12  C    3.785987   1.425663   2.445017   2.831991   2.451114
    13  C    4.288184   2.493742   3.776337   4.290263   3.801323
    14  C    5.741013   3.821342   4.960206   5.194160   4.387463
    15  C    6.601597   4.372333   5.220030   5.121457   4.116128
    16  C    7.967840   5.751017   6.560772   6.341456   5.216975
    17  C    8.572964   6.559083   7.537791   7.451827   6.341456
    18  C    7.958691   6.234181   7.391714   7.537791   6.560772
    19  C    6.570263   4.987129   6.234181   6.559083   5.751017
    20  C    6.234181   5.196079   6.570263   7.160146   6.571306
    21  C    7.391714   6.570263   7.958691   8.572964   7.967840
    22  C    7.537791   7.160146   8.572964   9.353459   8.909921
    23  C    6.560772   6.571306   7.967840   8.909921   8.673731
    24  C    5.220030   5.214672   6.601597   7.584564   7.436711
    25  C    4.960206   4.328286   5.741013   6.556705   6.235046
    26  C    3.776337   2.873975   4.288184   5.129922   4.913818
    27  H    2.152123   4.650790   4.954506   6.273661   7.176948
    28  H    3.401440   5.331063   6.176649   7.460643   7.976948
    29  H    3.860744   4.605224   5.846561   6.961062   7.059261
    30  H    1.090724   2.750093   2.633236   3.944559   4.998131
    31  H    2.633236   2.173195   1.090724   2.133621   3.389538
    32  H    4.954506   3.432591   2.152123   1.093852   2.174911
    33  H    6.176649   3.908609   3.401440   2.173932   1.093917
    34  H    5.846561   3.417111   3.860744   3.393772   2.134169
    35  H    6.347048   3.976370   4.583458   4.336727   3.362087
    36  H    8.691886   6.366135   6.997691   6.597780   5.425256
    37  H    9.666205   7.633252   8.574382   8.413177   7.246033
    38  H    8.693331   7.143523   8.356420   8.560220   7.597947
    39  H    8.356420   7.339629   8.693331   9.180663   8.439262
    40  H    8.574382   8.253103   9.666205  10.437618   9.964103
    41  H    6.997691   7.326028   8.691886   9.719358   9.584803
    42  H    4.583458   5.034178   6.347048   7.466317   7.522108
                   11         12         13         14         15
    11  C    0.000000
    12  C    1.418484   0.000000
    13  C    2.533825   1.463377   0.000000
    14  C    3.030314   2.551894   1.463377   0.000000
    15  C    2.926903   3.030314   2.533825   1.418484   0.000000
    16  C    4.116128   4.387463   3.801323   2.451114   1.385604
    17  C    5.121457   5.194160   4.290263   2.831991   2.413662
    18  C    5.220030   4.960206   3.776337   2.445017   2.774359
    19  C    4.372333   3.821342   2.493742   1.425663   2.431993
    20  C    5.214672   4.328286   2.873975   2.482724   3.740333
    21  C    6.601597   5.741013   4.288184   3.785987   4.901983
    22  C    7.584564   6.556705   5.129922   4.902169   6.092787
    23  C    7.436711   6.235046   4.913818   5.062996   6.346815
    24  C    6.262231   4.986244   3.763823   4.206177   5.536134
    25  C    4.986244   3.812337   2.470698   2.832270   4.206177
    26  C    3.763823   2.470698   1.399188   2.470698   3.763823
    27  H    6.998880   5.876055   6.197626   7.632529   8.625135
    28  H    7.382836   6.110116   5.875119   7.134487   8.392329
    29  H    6.112297   4.818769   4.101310   5.106187   6.476266
    30  H    5.070782   4.161701   4.939461   6.368301   7.054624
    31  H    3.864370   3.435841   4.655523   5.919503   6.244057
    32  H    3.407577   3.925332   5.381921   6.255854   6.084424
    33  H    2.150554   3.437201   4.680826   5.038028   4.533188
    34  H    1.088910   2.171127   2.770939   2.750709   2.401578
    35  H    2.401578   2.750709   2.770939   2.171127   1.088910
    36  H    4.533188   5.038028   4.680826   3.437201   2.150554
    37  H    6.084424   6.255854   5.381921   3.925332   3.407577
    38  H    6.244057   5.919503   4.655523   3.435841   3.864370
    39  H    7.054624   6.368301   4.939461   4.161701   5.070782
    40  H    8.625135   7.632529   6.197626   5.876055   6.998880
    41  H    8.392329   7.134487   5.875119   6.110116   7.382836
    42  H    6.476266   5.106187   4.101310   4.818769   6.112297
                   16         17         18         19         20
    16  C    0.000000
    17  C    1.404889   0.000000
    18  C    2.408467   1.385014   0.000000
    19  C    2.816801   2.444490   1.414794   0.000000
    20  C    4.247615   3.771159   2.510973   1.458690   0.000000
    21  C    5.122836   4.312271   2.950140   2.510973   1.414794
    22  C    6.414541   5.653094   4.312271   3.771159   2.444490
    23  C    6.929414   6.414541   5.122836   4.247615   2.816801
    24  C    6.346815   6.092787   4.901983   3.740333   2.431993
    25  C    5.062996   4.902169   3.785987   2.482724   1.425663
    26  C    4.913818   5.129922   4.288184   2.873975   2.493742
    27  H    9.964103  10.437618   9.666205   8.253103   7.633252
    28  H    9.584803   9.719358   8.691886   7.326028   6.366135
    29  H    7.522108   7.466317   6.347048   5.034178   3.976370
    30  H    8.439262   9.180663   8.693331   7.339629   7.143523
    31  H    7.597947   8.560220   8.356420   7.143523   7.339629
    32  H    7.246033   8.413177   8.574382   7.633252   8.253103
    33  H    5.425256   6.597780   6.997691   6.366135   7.326028
    34  H    3.362087   4.336727   4.583458   3.976370   5.034178
    35  H    2.134169   3.393772   3.860744   3.417111   4.605224
    36  H    1.093917   2.173932   3.401440   3.908609   5.331063
    37  H    2.174911   1.093852   2.152123   3.432591   4.650790
    38  H    3.389538   2.133621   1.090724   2.173195   2.750093
    39  H    4.998131   3.944559   2.633236   2.750093   2.173195
    40  H    7.176948   6.273661   4.954506   4.650790   3.432591
    41  H    7.976948   7.460643   6.176649   5.331063   3.908609
    42  H    7.059261   6.961062   5.846561   4.605224   3.417111
                   21         22         23         24         25
    21  C    0.000000
    22  C    1.385014   0.000000
    23  C    2.408467   1.404889   0.000000
    24  C    2.774359   2.413662   1.385604   0.000000
    25  C    2.445017   2.831991   2.451114   1.418484   0.000000
    26  C    3.776337   4.290263   3.801323   2.533825   1.463377
    27  H    8.574382   8.413177   7.246033   6.084424   6.255854
    28  H    6.997691   6.597780   5.425256   4.533188   5.038028
    29  H    4.583458   4.336727   3.362087   2.401578   2.750709
    30  H    8.356420   8.560220   7.597947   6.244057   5.919503
    31  H    8.693331   9.180663   8.439262   7.054624   6.368301
    32  H    9.666205  10.437618   9.964103   8.625135   7.632529
    33  H    8.691886   9.719358   9.584803   8.392329   7.134487
    34  H    6.347048   7.466317   7.522108   6.476266   5.106187
    35  H    5.846561   6.961062   7.059261   6.112297   4.818769
    36  H    6.176649   7.460643   7.976948   7.382836   6.110116
    37  H    4.954506   6.273661   7.176948   6.998880   5.876055
    38  H    2.633236   3.944559   4.998131   5.070782   4.161701
    39  H    1.090724   2.133621   3.389538   3.864370   3.435841
    40  H    2.152123   1.093852   2.174911   3.407577   3.925332
    41  H    3.401440   2.173932   1.093917   2.150554   3.437201
    42  H    3.860744   3.393772   2.134169   1.088910   2.171127
                   26         27         28         29         30
    26  C    0.000000
    27  H    5.381921   0.000000
    28  H    4.680826   2.514145   0.000000
    29  H    2.770939   4.298545   2.452985   0.000000
    30  H    4.655523   2.454301   4.291687   4.949677   0.000000
    31  H    4.939461   4.378122   5.996861   6.101001   1.947112
    32  H    6.197626   6.750694   8.194247   7.911269   4.378122
    33  H    5.875119   8.194247   9.010148   8.055535   5.996861
    34  H    4.101310   7.911269   8.055535   6.534244   6.101001
    35  H    4.101310   8.452175   8.541144   6.858569   6.641836
    36  H    5.875119  10.748216  10.530745   8.541144   9.062176
    37  H    6.197626  11.523608  10.748216   8.452175  10.269688
    38  H    4.939461  10.269688   9.062176   6.641836   9.496664
    39  H    4.655523   9.608441   8.036123   5.602774   9.294911
    40  H    5.381921   9.339254   7.395904   5.227674   9.608441
    41  H    4.680826   7.395904   5.451039   3.751884   8.036123
    42  H    2.770939   5.227674   3.751884   2.084135   5.602774
                   31         32         33         34         35
    31  H    0.000000
    32  H    2.454301   0.000000
    33  H    4.291687   2.514145   0.000000
    34  H    4.949677   4.298545   2.452985   0.000000
    35  H    5.602774   5.227674   3.751884   2.084135   0.000000
    36  H    8.036123   7.395904   5.451039   3.751884   2.452985
    37  H    9.608441   9.339254   7.395904   5.227674   4.298545
    38  H    9.294911   9.608441   8.036123   5.602774   4.949677
    39  H    9.496664  10.269688   9.062176   6.641836   6.101001
    40  H   10.269688  11.523608  10.748216   8.452175   7.911269
    41  H    9.062176  10.748216  10.530745   8.541144   8.055535
    42  H    6.641836   8.452175   8.541144   6.858569   6.534244
                   36         37         38         39         40
    36  H    0.000000
    37  H    2.514145   0.000000
    38  H    4.291687   2.454301   0.000000
    39  H    5.996861   4.378122   1.947112   0.000000
    40  H    8.194247   6.750694   4.378122   2.454301   0.000000
    41  H    9.010148   8.194247   5.996861   4.291687   2.514145
    42  H    8.055535   7.911269   6.101001   4.949677   4.298545
                   41         42
    41  H    0.000000
    42  H    2.452985   0.000000
 Framework group  C2H[C2(C.C),X(C24H16)]
 Deg. of freedom    30
                         Standard orientation:                         
 ---------------------------------------------------------------------
 Center     Atomic      Atomic             Coordinates (Angstroms)
 Number     Number       Type             X           Y           Z
 ---------------------------------------------------------------------
      1          6           0       -0.026398    3.725820    2.826547
      2          6           0        0.451584    2.569101    3.464707
      3          6           0        0.507439    1.372660    2.768067
      4          6           0        0.089827    1.272781    1.416135
      5          6           0       -0.215468    2.484238    0.729345
      6          6           0       -0.326071    3.681445    1.475070
      7          6           0       -0.215468    2.484238   -0.729345
      8          6           0       -0.326071    3.681445   -1.475070
      9          6           0       -0.026398    3.725820   -2.826547
     10          6           0        0.451584    2.569101   -3.464707
     11          6           0        0.507439    1.372660   -2.768067
     12          6           0        0.089827    1.272781   -1.416135
     13          6           0       -0.000000   -0.000000   -0.699594
     14          6           0       -0.089827   -1.272781   -1.416135
     15          6           0       -0.507439   -1.372660   -2.768067
     16          6           0       -0.451584   -2.569101   -3.464707
     17          6           0        0.026398   -3.725820   -2.826547
     18          6           0        0.326071   -3.681445   -1.475070
     19          6           0        0.215468   -2.484238   -0.729345
     20          6           0        0.215468   -2.484238    0.729345
     21          6           0        0.326071   -3.681445    1.475070
     22          6           0        0.026398   -3.725820    2.826547
     23          6           0       -0.451584   -2.569101    3.464707
     24          6           0       -0.507439   -1.372660    2.768067
     25          6           0       -0.089827   -1.272781    1.416135
     26          6           0       -0.000000   -0.000000    0.699594
     27          1           0       -0.110103    4.668329    3.375347
     28          1           0        0.787248    2.609348    4.505074
     29          1           0        0.916662    0.495616    3.267122
     30          1           0       -0.611343    4.607071    0.973556
     31          1           0       -0.611343    4.607071   -0.973556
     32          1           0       -0.110103    4.668329   -3.375347
     33          1           0        0.787248    2.609348   -4.505074
     34          1           0        0.916662    0.495616   -3.267122
     35          1           0       -0.916662   -0.495616   -3.267122
     36          1           0       -0.787248   -2.609348   -4.505074
     37          1           0        0.110103   -4.668329   -3.375347
     38          1           0        0.611343   -4.607071   -0.973556
     39          1           0        0.611343   -4.607071    0.973556
     40          1           0        0.110103   -4.668329    3.375347
     41          1           0       -0.787248   -2.609348    4.505074
     42          1           0       -0.916662   -0.495616    3.267122
 ---------------------------------------------------------------------
 Rotational constants (GHZ):           0.2843373           0.2162223           0.1250929
   444 basis functions,   970 primitive gaussians,   470 cartesian basis functions
    86 alpha electrons       86 beta electrons
       nuclear repulsion energy      2071.2381476479 Hartrees.
 NAtoms=   42 NActive=   42 NUniq=   11 SFac= 4.00D+00 NAtFMM=   60 NAOKFM=F Big=F
 ExpMin= 1.22D-01 ExpMax= 6.67D+03 ExpMxC= 2.28D+02 IAcc=3 IRadAn=         5 AccDes= 0.00D+00
 Harris functional with IExCor=  205 and IRadAn=       5 diagonalized for initial guess.
 HarFok:  IExCor=  205 AccDes= 0.00D+00 IRadAn=         5 IDoV= 1 UseB2=F ITyADJ=14
 ICtDFT=  3500011 ScaDFX=  1.000000  1.000000  1.000000  1.000000
 FoFCou: FMM=F IPFlag=           0 FMFlag=      100000 FMFlg1=           0
         NFxFlg=           0 DoJE=T BraDBF=F KetDBF=T FulRan=T
         wScrn=  0.000000 ICntrl=       500 IOpCl=  0 I1Cent=   200000004 NGrid=           0
         NMat0=    1 NMatS0=      1 NMatT0=    0 NMatD0=    1 NMtDS0=    0 NMtDT0=    0
 Petite list used in FoFCou.
 Initial guess orbital symmetries:
       Occupied  (BG) (AU) (BU) (AG) (BG) (AU) (BU) (AG) (BG) (AU)
                 (AG) (BU) (BG) (AU) (AG) (BU) (BU) (AG) (BG) (AU)
                 (AU) (BG) (AG) (BU) (AG) (AU) (AG) (BU) (AU) (BG)
                 (AG) (BU) (AG) (AU) (BU) (BG) (AU) (BG) (AG) (AG)
                 (AU) (BU) (BU) (AG) (AU) (BG) (BG) (BU) (AG) (AU)
                 (AG) (BU) (BG) (AU) (BU) (AU) (BG) (AG) (BU) (AG)
                 (AG) (BU) (AU) (BG) (BG) (BU) (AG) (AU) (AG) (BG)
                 (BU) (BG) (AU) (AU) (BU) (AG) (BG) (BU) (AG) (BU)
                 (BG) (AG) (AU) (BG) (AU) (BU)
       Virtual   (BG) (AG) (BU) (AG) (AU) (BU) (AU) (BG) (BG) (AG)
                 (BU) (AG) (AU) (BU) (BG) (AU) (AG) (BU) (AU) (AG)
                 (BG) (BU) (BG) (AG) (BU) (AU) (BU) (BG) (AU) (AG)
                 (AU) (AG) (BU) (AU) (BG) (BG) (BU) (AG) (BG) (AG)
                 (AU) (BU) (AG) (AU) (AU) (BU) (BG) (BG) (BG) (AU)
                 (AG) (BU) (AU) (BG) (BU) (AG) (AG) (AG) (AU) (BU)
                 (BG) (BU) (BU) (BG) (AG) (AU) (BG) (AG) (AU) (AU)
                 (BU) (BG) (BU) (AU) (AG) (AG) (BG) (BU) (AG) (BU)
                 (AG) (AU) (BG) (AU) (BU) (AG) (BG) (BU) (AG) (AU)
                 (BG) (AG) (BU) (BU) (AU) (BG) (AU) (BG) (AG) (BU)
                 (AG) (AU) (BU) (AU) (BG) (AG) (BU) (BG) (AU) (AG)
                 (BU) (AU) (BG) (BG) (AG) (BU) (AG) (AU) (BG) (AU)
                 (BG) (BU) (AU) (BU) (AG) (AU) (BG) (BG) (AG) (BG)
                 (BU) (BU) (AG) (AU) (BU) (AG) (AU) (AG) (BG) (BU)
                 (AU) (BG) (AU) (BG) (AG) (BU) (BU) (AG) (AG) (AU)
                 (BU) (BG) (AU) (AG) (AU) (BU) (BG) (BU) (BG) (AG)
                 (AU) (AG) (BG) (BU) (AU) (AG) (BU) (AU) (BG) (AG)
                 (AU) (BU) (AG) (BG) (BU) (BG) (AG) (AU) (BG) (BU)
                 (AU) (BU) (BG) (AG) (AU) (AG) (BG) (BU) (AU) (AG)
                 (BU) (BG) (BG) (BU) (AG) (AU) (AU) (BG) (AG) (BU)
                 (AU) (BU) (BG) (AG) (AG) (BU) (AG) (BG) (BG) (AU)
                 (AG) (AU) (BU) (AU) (BU) (BG) (BG) (BU) (AG) (AU)
                 (AG) (BG) (AU) (BU) (BU) (AG) (BG) (BU) (AG) (BG)
                 (AU) (BU) (AU) (BG) (AG) (AU) (BG) (AU) (AG) (BG)
                 (BU) (BU) (AU) (AG) (BU) (BG) (AG) (AU) (BU) (AG)
                 (AU) (AG) (BG) (AU) (BU) (BG) (AG) (BU) (AU) (BG)
                 (AG) (AU) (BU) (BG) (BU) (AG) (AU) (BG) (AU) (BG)
                 (AG) (BU) (BG) (BU) (BG) (AU) (AG) (BU) (AU) (AU)
                 (BG) (AG) (BU) (AG) (BU) (BG) (AG) (AU) (BG) (AU)
                 (AG) (BU) (BG) (AU) (BG) (BU) (AU) (AU) (AG) (AG)
                 (BU) (BG) (BU) (AG) (AU) (BU) (BG) (AG) (AU) (BU)
                 (AG) (BG) (AU) (AG) (BG) (AU) (BU) (AU) (AG) (BG)
                 (BU) (AU) (BU) (BG) (AU) (AG) (BG) (BG) (AG) (AU)
                 (BU) (BG) (AG) (AU) (AG) (BU) (BG) (BU) (AU) (AG)
                 (BG) (BU) (AU) (BG) (AG) (BG) (BU) (AU) (AU) (AG)
                 (BG) (AU) (BG) (AU) (BU) (AG) (AU) (BG)
 The electronic state of the initial guess is 1-AG.
 Integral accuracy reduced to 1.0D-05 until final iterations.
 Initial convergence to 1.0D-05 achieved.  Increase integral accuracy.
 SCF Done:  E(RHF) =  -993.996053333     A.U. after   16 cycles
            NFock= 16  Conv=0.44D-08     -V/T= 2.0012
 ExpMin= 1.22D-01 ExpMax= 6.67D+03 ExpMxC= 2.28D+02 IAcc=3 IRadAn=         5 AccDes= 0.00D+00
 HarFok:  IExCor=  205 AccDes= 0.00D+00 IRadAn=         5 IDoV=-2 UseB2=F ITyADJ=14
 ICtDFT= 12500011 ScaDFX=  1.000000  1.000000  1.000000  1.000000
 GSVD:  LWork=        -884 too small for GESVD, short by        3770 words or        3770 for optimal perf.
 NROrb=    418 NOA=    60 NOB=    60 NVA=   358 NVB=   358

 **** Warning!!: The largest alpha MO coefficient is  0.20018950D+02

 Estimated scratch disk usage=  1529352080 words.
 Actual    scratch disk usage=  1151992208 words.
 (rs|ai) integrals will be sorted in core.
 ANorm=    0.1524732165D+01
 E2 =    -0.3379956629D+01 EUMP2 =    -0.99737600996169D+03

 **********************************************************************

            Population analysis using the SCF Density.

 **********************************************************************

 Orbital symmetries:
       Occupied  (AG) (AU) (BU) (AG) (BG) (AU) (BU) (AG) (BG) (AU)
                 (BG) (AU) (BU) (AG) (BG) (AU) (BU) (AG) (BG) (BU)
                 (AU) (AG) (BG) (BU) (AG) (AU) (AG) (BU) (AU) (BG)
                 (AG) (BU) (AG) (AU) (BU) (BG) (AU) (BG) (AG) (AG)
                 (AU) (BU) (BU) (AG) (AU) (BG) (BG) (AU) (BU) (AG)
                 (AG) (BG) (BU) (AU) (BU) (AG) (AU) (BG) (AG) (BU)
                 (BG) (AU) (BU) (AG) (BG) (BU) (AG) (AU) (AG) (BG)
                 (BU) (AU) (BG) (BU) (AU) (AG) (BG) (BU) (AG) (BU)
                 (BG) (AG) (AU) (BG) (AU) (BU)
       Virtual   (BG) (AG) (BU) (AG) (AU) (BU) (AU) (AG) (BG) (BU)
                 (AU) (BG) (AG) (BU) (AU) (AG) (BG) (BU) (BG) (BU)
                 (AU) (AG) (BG) (AG) (AU) (BG) (BU) (AU) (AG) (BU)
                 (AU) (BG) (AG) (BU) (AU) (BU) (AG) (BG) (AG) (AU)
                 (BU) (BG) (AU) (AG) (BG) (BU) (AU) (BG) (AG) (BG)
                 (BU) (AU) (BU) (AU) (AG) (BG) (AG) (BU) (AG) (BU)
                 (AG) (AU) (BG) (BU) (AU) (BG) (BG) (BU) (AG) (BU)
                 (AU) (BG) (AG) (BU) (AU) (AG) (AG) (BG) (AU) (BG)
                 (AU) (BU) (AG) (AG) (AU) (BU) (BG) (BU) (AG) (AU)
                 (BG) (AG) (AU) (BU) (BU) (BG) (AU) (AG) (BU) (BG)
                 (BU) (BG) (AG) (AU) (AG) (BU) (AU) (AU) (AG) (BG)
                 (BU) (BG) (AG) (AU) (BG) (BU) (AG) (AU) (BG) (BU)
                 (AG) (AU) (BU) (BG) (AU) (AU) (BG) (AG) (BG) (BU)
                 (AU) (BG) (AG) (BU) (AU) (AG) (BU) (AG) (AG) (BG)
                 (BU) (BG) (AU) (BU) (BG) (BU) (AG) (AU) (BU) (AG)
                 (AU) (BG) (AU) (AG) (BG) (BU) (AU) (BU) (BG) (AU)
                 (AG) (AG) (AU) (BG) (BU) (AG) (AU) (BG) (AG) (BU)
                 (AU) (BU) (AG) (BG) (BU) (BG) (AU) (AG) (BG) (BU)
                 (AU) (BU) (AG) (BG) (AU) (AG) (BG) (AU) (BU) (AG)
                 (BG) (BU) (BG) (BU) (AG) (AU) (AU) (BG) (AG) (AU)
                 (BU) (BG) (BU) (AG) (BU) (AG) (BG) (AG) (AU) (BG)
                 (AU) (AG) (BU) (BG) (AU) (BG) (AU) (BU) (BU) (AG)
                 (BG) (BU) (AG) (AU) (BG) (AG) (BU) (BU) (BU) (AG)
                 (BG) (AU) (AG) (AU) (BG) (AU) (BG) (BU) (AU) (BG)
                 (AG) (BU) (AU) (AG) (BG) (AG) (BU) (BU) (AU) (AG)
                 (AU) (BG) (AU) (AG) (BG) (BU) (AG) (BU) (AU) (AG)
                 (BG) (BU) (AU) (BU) (BG) (AU) (AG) (BU) (BG) (AU)
                 (BG) (AG) (BU) (BG) (BG) (AU) (AG) (BU) (BG) (AU)
                 (BU) (AG) (AG) (AU) (BU) (AG) (AU) (BG) (AU) (BG)
                 (BU) (AG) (BG) (BG) (BU) (AU) (AU) (AG) (AU) (AG)
                 (BU) (BG) (BU) (AU) (AG) (BG) (AG) (AU) (BU) (BU)
                 (AG) (BG) (BG) (AG) (AU) (AU) (BU) (AU) (BG) (AG)
                 (BU) (AU) (BG) (AG) (BU) (AU) (BG) (BG) (AG) (AU)
                 (BG) (BU) (AU) (AG) (BU) (AG) (BG) (AU) (BG) (AG)
                 (BU) (BU) (BG) (AU) (AG) (AU) (BG) (BU) (AU) (AG)
                 (BG) (AU) (BG) (AU) (BU) (AG) (AU) (BG)
 The electronic state is 1-AG.
 Alpha  occ. eigenvalues --  -11.25903 -11.25790 -11.25613 -11.25610 -11.25581
 Alpha  occ. eigenvalues --  -11.25568 -11.25509 -11.25503 -11.25462 -11.25458
 Alpha  occ. eigenvalues --  -11.24473 -11.24473 -11.24473 -11.24473 -11.24317
 Alpha  occ. eigenvalues --  -11.24317 -11.24316 -11.24316 -11.24278 -11.24278
 Alpha  occ. eigenvalues --  -11.24278 -11.24278 -11.24162 -11.24162 -11.24162
 Alpha  occ. eigenvalues --  -11.24162  -1.20201  -1.17296  -1.15073  -1.13848
 Alpha  occ. eigenvalues --   -1.10667  -1.05995  -1.05643  -1.04721  -1.02060
 Alpha  occ. eigenvalues --   -1.00503  -0.98992  -0.98105  -0.97248  -0.86913
 Alpha  occ. eigenvalues --   -0.86721  -0.85923  -0.84815  -0.81067  -0.80442
 Alpha  occ. eigenvalues --   -0.80364  -0.77596  -0.72534  -0.71880  -0.71519
 Alpha  occ. eigenvalues --   -0.67406  -0.67117  -0.66851  -0.64980  -0.64004
 Alpha  occ. eigenvalues --   -0.63907  -0.60678  -0.60388  -0.59339  -0.59316
 Alpha  occ. eigenvalues --   -0.59066  -0.59040  -0.58523  -0.57450  -0.56297
 Alpha  occ. eigenvalues --   -0.55592  -0.53197  -0.53180  -0.52320  -0.51639
 Alpha  occ. eigenvalues --   -0.50540  -0.49233  -0.49163  -0.48812  -0.48524
 Alpha  occ. eigenvalues --   -0.46875  -0.45349  -0.43926  -0.38358  -0.37434
 Alpha  occ. eigenvalues --   -0.35797  -0.34137  -0.33549  -0.29659  -0.28118
 Alpha  occ. eigenvalues --   -0.26127
 Alpha virt. eigenvalues --    0.06297   0.07750   0.09297   0.10895   0.14119
 Alpha virt. eigenvalues --    0.15474   0.17927   0.18307   0.18627   0.18742
 Alpha virt. eigenvalues --    0.19185   0.20029   0.20901   0.22405   0.22773
 Alpha virt. eigenvalues --    0.24264   0.24322   0.25285   0.25676   0.26808
 Alpha virt. eigenvalues --    0.27204   0.27515   0.27740   0.30727   0.32671
 Alpha virt. eigenvalues --    0.33052   0.34493   0.37226   0.39315   0.39441
 Alpha virt. eigenvalues --    0.41481   0.41862   0.42468   0.42641   0.43939
 Alpha virt. eigenvalues --    0.44261   0.44875   0.44947   0.45839   0.47006
 Alpha virt. eigenvalues --    0.47699   0.48201   0.49634   0.49832   0.50932
 Alpha virt. eigenvalues --    0.52282   0.52334   0.55755   0.59105   0.59666
 Alpha virt. eigenvalues --    0.61643   0.61842   0.64394   0.64635   0.65007
 Alpha virt. eigenvalues --    0.66367   0.66495   0.66808   0.66880   0.66979
 Alpha virt. eigenvalues --    0.67791   0.67906   0.68177   0.68178   0.69438
 Alpha virt. eigenvalues --    0.69624   0.70309   0.70476   0.71088   0.71251
 Alpha virt. eigenvalues --    0.71332   0.71767   0.72124   0.72830   0.73279
 Alpha virt. eigenvalues --    0.73293   0.73972   0.74070   0.74448   0.74704
 Alpha virt. eigenvalues --    0.74901   0.75309   0.75462   0.75942   0.76957
 Alpha virt. eigenvalues --    0.77290   0.77955   0.78132   0.78754   0.78762
 Alpha virt. eigenvalues --    0.79629   0.80244   0.81113   0.81187   0.81975
 Alpha virt. eigenvalues --    0.83114   0.84037   0.85105   0.86558   0.86941
 Alpha virt. eigenvalues --    0.87742   0.88531   0.88634   0.88917   0.88959
 Alpha virt. eigenvalues --    0.89491   0.89755   0.90153   0.90356   0.90483
 Alpha virt. eigenvalues --    0.93030   0.93454   0.93662   0.93694   0.94430
 Alpha virt. eigenvalues --    0.95908   0.96588   0.96843   0.97318   0.97492
 Alpha virt. eigenvalues --    0.99888   0.99965   1.00374   1.00595   1.01408
 Alpha virt. eigenvalues --    1.04546   1.05777   1.07140   1.08715   1.09033
 Alpha virt. eigenvalues --    1.10545   1.10704   1.11446   1.11686   1.11731
 Alpha virt. eigenvalues --    1.12590   1.13975   1.14738   1.15120   1.15181
 Alpha virt. eigenvalues --    1.15188   1.15651   1.16393   1.16536   1.17516
 Alpha virt. eigenvalues --    1.17668   1.18592   1.18614   1.20147   1.20576
 Alpha virt. eigenvalues --    1.20795   1.21550   1.21688   1.22969   1.23013
 Alpha virt. eigenvalues --    1.23184   1.23356   1.25051   1.25219   1.25408
 Alpha virt. eigenvalues --    1.26198   1.28118   1.28363   1.28670   1.28772
 Alpha virt. eigenvalues --    1.30220   1.30902   1.31285   1.31858   1.32720
 Alpha virt. eigenvalues --    1.34276   1.34345   1.36184   1.36478   1.38019
 Alpha virt. eigenvalues --    1.41285   1.42722   1.43032   1.44276   1.45598
 Alpha virt. eigenvalues --    1.49616   1.50855   1.51128   1.51547   1.54776
 Alpha virt. eigenvalues --    1.55142   1.56305   1.56482   1.56827   1.58041
 Alpha virt. eigenvalues --    1.58135   1.60429   1.61820   1.62360   1.63063
 Alpha virt. eigenvalues --    1.63713   1.65432   1.66417   1.69155   1.70501
 Alpha virt. eigenvalues --    1.70539   1.72473   1.72931   1.73488   1.74116
 Alpha virt. eigenvalues --    1.74338   1.74392   1.74949   1.75795   1.76536
 Alpha virt. eigenvalues --    1.76687   1.76895   1.78473   1.78613   1.79293
 Alpha virt. eigenvalues --    1.80920   1.80968   1.82588   1.82755   1.83603
 Alpha virt. eigenvalues --    1.84779   1.86437   1.86730   1.87364   1.87614
 Alpha virt. eigenvalues --    1.88622   1.89275   1.89901   1.90423   1.91179
 Alpha virt. eigenvalues --    1.91193   1.91302   1.91644   1.93850   1.93944
 Alpha virt. eigenvalues --    1.94209   1.94422   1.94745   1.94956   1.95952
 Alpha virt. eigenvalues --    1.96810   1.97569   1.97786   1.97982   1.98079
 Alpha virt. eigenvalues --    1.99071   2.00285   2.01051   2.01694   2.02705
 Alpha virt. eigenvalues --    2.02752   2.04298   2.05472   2.06073   2.06442
 Alpha virt. eigenvalues --    2.09790   2.09981   2.10022   2.11447   2.11955
 Alpha virt. eigenvalues --    2.12281   2.12622   2.13552   2.13570   2.13702
 Alpha virt. eigenvalues --    2.13959   2.14256   2.14806   2.15320   2.15617
 Alpha virt. eigenvalues --    2.16517   2.16807   2.17692   2.18484   2.19289
 Alpha virt. eigenvalues --    2.19581   2.20524   2.20882   2.21659   2.21705
 Alpha virt. eigenvalues --    2.23353   2.24304   2.24659   2.24794   2.26700
 Alpha virt. eigenvalues --    2.27636   2.28001   2.28635   2.29734   2.30344
 Alpha virt. eigenvalues --    2.31976   2.32926   2.34459   2.35147   2.35230
 Alpha virt. eigenvalues --    2.36861   2.37452   2.38310   2.39566   2.42263
 Alpha virt. eigenvalues --    2.45536   2.46303   2.47526   2.49527   2.50219
 Alpha virt. eigenvalues --    2.52374   2.52441   2.52888   2.53809   2.56843
 Alpha virt. eigenvalues --    2.57397   2.59077   2.60095   2.61636   2.62029
 Alpha virt. eigenvalues --    2.66871   2.69188   2.71099   2.72075   2.72172
 Alpha virt. eigenvalues --    2.72427   2.73296   2.75629   2.76465   2.76804
 Alpha virt. eigenvalues --    2.77868   2.78057   2.80453   2.81609   2.84561
 Alpha virt. eigenvalues --    2.85151   2.88445   2.93027   2.95835   2.99738
 Alpha virt. eigenvalues --    2.99945   3.02753   3.03252   3.03259   3.04805
 Alpha virt. eigenvalues --    3.05067   3.06414   3.07532   3.08817   3.12195
 Alpha virt. eigenvalues --    3.12723   3.16780   3.17622   3.19182   3.27053
 Alpha virt. eigenvalues --    3.29377   3.32391   3.53607   3.53984   3.79587
 Alpha virt. eigenvalues --    3.80578   3.92925   3.96770
          Condensed to atoms (all electrons):
 Mulliken charges:
               1
     1  C    0.001023
     2  C    0.000713
     3  C   -0.031904
     4  C   -0.087542
     5  C   -0.039590
     6  C   -0.015372
     7  C   -0.039590
     8  C   -0.015372
     9  C    0.001023
    10  C    0.000713
    11  C   -0.031904
    12  C   -0.087542
    13  C    0.086532
    14  C   -0.087542
    15  C   -0.031904
    16  C    0.000713
    17  C    0.001023
    18  C   -0.015372
    19  C   -0.039590
    20  C   -0.039590
    21  C   -0.015372
    22  C    0.001023
    23  C    0.000713
    24  C   -0.031904
    25  C   -0.087542
    26  C    0.086532
    27  H    0.027220
    28  H    0.028388
    29  H    0.047199
    30  H    0.026599
    31  H    0.026599
    32  H    0.027220
    33  H    0.028388
    34  H    0.047199
    35  H    0.047199
    36  H    0.028388
    37  H    0.027220
    38  H    0.026599
    39  H    0.026599
    40  H    0.027220
    41  H    0.028388
    42  H    0.047199
 Sum of Mulliken charges =  -0.00000
 Mulliken charges with hydrogens summed into heavy atoms:
               1
     1  C    0.028242
     2  C    0.029100
     3  C    0.015296
     4  C   -0.087542
     5  C   -0.039590
     6  C    0.011227
     7  C   -0.039590
     8  C    0.011227
     9  C    0.028242
    10  C    0.029100
    11  C    0.015296
    12  C   -0.087542
    13  C    0.086532
    14  C   -0.087542
    15  C    0.015296
    16  C    0.029100
    17  C    0.028242
    18  C    0.011227
    19  C   -0.039590
    20  C   -0.039590
    21  C    0.011227
    22  C    0.028242
    23  C    0.029100
    24  C    0.015296
    25  C   -0.087542
    26  C    0.086532
 Electronic spatial extent (au):  <R**2>=           8268.3178
 Charge=             -0.0000 electrons
 Dipole moment (field-independent basis, Debye):
    X=             -0.0000    Y=             -0.0000    Z=              0.0000  Tot=              0.0000
 Unable to Open any file for archive entry.
 1\1\GINC-NODE01\SP\RMP2-FC\CC-pVDZ\C26H16\XUHJ\11-Oct-2024\0\\#T MP2/c
 c-pVDZ symm=veryloose\\c1ccc2c(c1)c1ccccc1c1c3ccccc3c3ccccc3c21\\0,1\C
 ,0,-0.026398,-3.72582,-2.826547\C,0,0.451584,-2.569101,-3.464707\C,0,0
 .507439,-1.37266,-2.768067\C,0,0.089827,-1.272781,-1.416135\C,0,-0.215
 468,-2.484238,-0.729345\C,0,-0.326071,-3.681445,-1.47507\C,0,-0.215468
 ,-2.484238,0.729345\C,0,-0.326071,-3.681445,1.47507\C,0,-0.026398,-3.7
 2582,2.826547\C,0,0.451584,-2.569101,3.464707\C,0,0.507439,-1.37266,2.
 768067\C,0,0.089827,-1.272781,1.416135\C,0,0.,0.,0.699594\C,0,-0.08982
 7,1.272781,1.416135\C,0,-0.507439,1.37266,2.768067\C,0,-0.451584,2.569
 101,3.464707\C,0,0.026398,3.72582,2.826547\C,0,0.326071,3.681445,1.475
 07\C,0,0.215468,2.484238,0.729345\C,0,0.215468,2.484238,-0.729345\C,0,
 0.326071,3.681445,-1.47507\C,0,0.026398,3.72582,-2.826547\C,0,-0.45158
 4,2.569101,-3.464707\C,0,-0.507439,1.37266,-2.768067\C,0,-0.089827,1.2
 72781,-1.416135\C,0,0.,0.,-0.699594\H,0,-0.110103,-4.668329,-3.375347\
 H,0,0.787248,-2.609348,-4.505074\H,0,0.916662,-0.495616,-3.267122\H,0,
 -0.611343,-4.607071,-0.973556\H,0,-0.611343,-4.607071,0.973556\H,0,-0.
 110103,-4.668329,3.375347\H,0,0.787248,-2.609348,4.505074\H,0,0.916662
 ,-0.495616,3.267122\H,0,-0.916662,0.495616,3.267122\H,0,-0.787248,2.60
 9348,4.505074\H,0,0.110103,4.668329,3.375347\H,0,0.611343,4.607071,0.9
 73556\H,0,0.611343,4.607071,-0.973556\H,0,0.110103,4.668329,-3.375347\
 H,0,-0.787248,2.609348,-4.505074\H,0,-0.916662,0.495616,-3.267122\\Ver
 sion=ES64L-G16RevC.01\State=1-AG\HF=-993.9960533\MP2=-997.37601\RMSD=4
 .357e-09\PG=C02H [C2(C1.C1),X(C24H16)]\\@
 The archive entry for this job was punched.


 SOME THINGS ARE EASY, THEY ARE ONLY HARD TO DO.
            -- A. EINSTEIN TO J. O. HIRSCHFELDER
 THE ONLY TROUBLE WITH A SURE THING IS THE UNCERTAINTY.
     -- FROM A TEABAG (BELONGING TO W.H.?)
 Job cpu time:       0 days  0 hours  7 minutes 37.3 seconds.
 Elapsed time:       0 days  0 hours  0 minutes 57.2 seconds.
 File lengths (MBytes):  RWF=   8903 Int=      0 D2E=      0 Chk=     14 Scr=      1
 Normal termination of Gaussian 16 at Fri Oct 11 15:17:06 2024.
