 Entering Gaussian System, Link 0=g16
 Initial command:
 /opt/g16/l1.exe "/tmp/Gau-2510971.inp" -scrdir="/tmp/"
 Entering Link 1 = /opt/g16/l1.exe PID=   2510973.
  
 Copyright (c) 1988-2019, Gaussian, Inc.  All Rights Reserved.
  
 This is part of the Gaussian(R) 16 program.  It is based on
 the Gaussian(R) 09 system (copyright 2009, Gaussian, Inc.),
 the Gaussian(R) 03 system (copyright 2003, Gaussian, Inc.),
 the Gaussian(R) 98 system (copyright 1998, Gaussian, Inc.),
 the Gaussian(R) 94 system (copyright 1995, Gaussian, Inc.),
 the Gaussian 92(TM) system (copyright 1992, Gaussian, Inc.),
 the Gaussian 90(TM) system (copyright 1990, Gaussian, Inc.),
 the Gaussian 88(TM) system (copyright 1988, Gaussian, Inc.),
 the Gaussian 86(TM) system (copyright 1986, Carnegie Mellon
 University), and the Gaussian 82(TM) system (copyright 1983,
 Carnegie Mellon University). Gaussian is a federally registered
 trademark of Gaussian, Inc.
  
 This software contains proprietary and confidential information,
 including trade secrets, belonging to Gaussian, Inc.
  
 This software is provided under written license and may be
 used, copied, transmitted, or stored only in accord with that
 written license.
  
 The following legend is applicable only to US Government
 contracts under FAR:
  
                    RESTRICTED RIGHTS LEGEND
  
 Use, reproduction and disclosure by the US Government is
 subject to restrictions as set forth in subparagraphs (a)
 and (c) of the Commercial Computer Software - Restricted
 Rights clause in FAR 52.227-19.
  
 Gaussian, Inc.
 340 Quinnipiac St., Bldg. 40, Wallingford CT 06492
  
  
 ---------------------------------------------------------------
 Warning -- This program may not be used in any manner that
 competes with the business of Gaussian, Inc. or will provide
 assistance to any competitor of Gaussian, Inc.  The licensee
 of this program is prohibited from giving any competitor of
 Gaussian, Inc. access to this program.  By using this program,
 the user acknowledges that Gaussian, Inc. is engaged in the
 business of creating and licensing software in the field of
 computational chemistry and represents and warrants to the
 licensee that it is not a competitor of Gaussian, Inc. and that
 it will not use this program in any manner prohibited above.
 ---------------------------------------------------------------
  

 Cite this work as:
 Gaussian 16, Revision C.01,
 M. J. Frisch, G. W. Trucks, H. B. Schlegel, G. E. Scuseria, 
 M. A. Robb, J. R. Cheeseman, G. Scalmani, V. Barone, 
 G. A. Petersson, H. Nakatsuji, X. Li, M. Caricato, A. V. Marenich, 
 J. Bloino, B. G. Janesko, R. Gomperts, B. Mennucci, H. P. Hratchian, 
 J. V. Ortiz, A. F. Izmaylov, J. L. Sonnenberg, D. Williams-Young, 
 F. Ding, F. Lipparini, F. Egidi, J. Goings, B. Peng, A. Petrone, 
 T. Henderson, D. Ranasinghe, V. G. Zakrzewski, J. Gao, N. Rega, 
 G. Zheng, W. Liang, M. Hada, M. Ehara, K. Toyota, R. Fukuda, 
 J. Hasegawa, M. Ishida, T. Nakajima, Y. Honda, O. Kitao, H. Nakai, 
 T. Vreven, K. Throssell, J. A. Montgomery, Jr., J. E. Peralta, 
 F. Ogliaro, M. J. Bearpark, J. J. Heyd, E. N. Brothers, K. N. Kudin, 
 V. N. Staroverov, T. A. Keith, R. Kobayashi, J. Normand, 
 K. Raghavachari, A. P. Rendell, J. C. Burant, S. S. Iyengar, 
 J. Tomasi, M. Cossi, J. M. Millam, M. Klene, C. Adamo, R. Cammi, 
 J. W. Ochterski, R. L. Martin, K. Morokuma, O. Farkas, 
 J. B. Foresman, and D. J. Fox, Gaussian, Inc., Wallingford CT, 2019.
 
 ******************************************
 Gaussian 16:  ES64L-G16RevC.01  3-Jul-2019
                11-Oct-2024 
 ******************************************
 %nprocshared=8
 Will use up to    8 processors via shared memory.
 %mem=10400MB
 -----------------------------
 #T MP2/cc-pVDZ symm=veryloose
 -----------------------------
 ----------------------------------------
 c1ccc2c(c1)ccc1cc3c4ccccc4c4ccccc4c3cc12
 ----------------------------------------
 Symbolic Z-matrix:
 Charge =  0 Multiplicity = 1
 C                    -4.5948   -4.02848   0. 
 C                    -4.74023  -2.62801   0. 
 C                    -3.62151  -1.80844   0. 
 C                    -2.31296  -2.34477   0. 
 C                    -2.17136  -3.76532   0. 
 C                    -3.32585  -4.58272   0. 
 C                    -0.85685  -4.35186   0. 
 C                     0.2628   -3.57774   0. 
 C                     0.17141  -2.14283   0. 
 C                     1.32422  -1.34409   0. 
 C                     1.2822    0.05351   0. 
 C                     2.50492   0.86585   0. 
 C                     3.78637   0.2693    0. 
 C                     4.94709   1.02728   0. 
 C                     4.85918   2.42697   0. 
 C                     3.61308   3.03497   0. 
 C                     2.415     2.28439   0. 
 C                     1.09935   2.93877   0. 
 C                     0.97767   4.34723   0. 
 C                    -0.25737   4.97721   0. 
 C                    -1.42781   4.20485   0. 
 C                    -1.33455   2.82179   0. 
 C                    -0.08758   2.15548   0. 
 C                     0.        0.68917   0. 
 C                    -1.1484   -0.11303   0. 
 C                    -1.11202  -1.51434   0. 
 H                    -5.47879  -4.67282   0. 
 H                    -5.73914  -2.18198   0. 
 H                    -3.76679  -0.72659   0. 
 H                    -3.19801  -5.66968   0. 
 H                    -0.77785  -5.44323   0. 
 H                     1.25689  -4.03512   0. 
 H                     2.28314  -1.86319   0. 
 H                     3.87963  -0.81686   0. 
 H                     5.92266   0.5326    0. 
 H                     5.76535   3.03961   0. 
 H                     3.57252   4.12417   0. 
 H                     1.87228   4.96985   0. 
 H                    -0.31325   6.06959   0. 
 H                    -2.41019   4.68588   0. 
 H                    -2.25945   2.24482   0. 
 H                    -2.12098   0.37212   0. 
 
                    Distance matrix (angstroms):
                    1          2          3          4          5
     1  C    0.000000
     2  C    1.408008   0.000000
     3  C    2.424023   1.386806   0.000000
     4  C    2.835785   2.443738   1.414191   0.000000
     5  C    2.437690   2.809379   2.435638   1.427596   0.000000
     6  C    1.384702   2.412751   2.789989   2.456497   1.414569
     7  C    3.751914   4.248807   3.756642   2.479659   1.439432
     8  C    4.878466   5.092378   4.268287   2.855657   2.441372
     9  C    5.125666   4.935546   3.807629   2.492567   2.849745
    10  C    6.499288   6.198872   4.967480   3.772328   4.252223
    11  C    7.155547   6.592440   5.245308   4.321686   5.148842
    12  C    8.623256   8.043587   6.684682   5.789653   6.581439
    13  C    9.418865   9.005409   7.693746   6.635908   7.195327
    14  C   10.798538  10.354002   9.025642   8.004942   8.581452
    15  C   11.447732  10.849031   9.479491   8.614470   9.368718
    16  C   10.828739  10.091931   8.706196   8.003719   8.927689
    17  C    9.433431   8.679226   7.293194   6.616850   7.591682
    18  C    8.998103   8.067815   6.694956   6.289641   7.459376
    19  C   10.060072   9.019334   7.684059   7.457287   8.702293
    20  C    9.995788   8.828100   7.573800   7.605050   8.949590
    21  C    8.821431   7.593425   6.400938   6.609162   8.004784
    22  C    7.586530   6.426424   5.164221   5.258381   6.640048
    23  C    7.652216   6.672998   5.310490   5.020412   6.276782
    24  C    6.585475   5.785628   4.399250   3.815049   4.955534
    25  C    5.216174   4.384790   2.998448   2.517315   3.792848
    26  C    4.295424   3.795283   2.526663   1.460094   2.487793
    27  H    1.093898   2.174105   3.413821   3.929669   3.429676
    28  H    2.172349   1.093966   2.150326   3.430043   3.903341
    29  H    3.404125   2.136107   1.091558   2.175340   3.432097
    30  H    2.155118   3.410309   3.884394   3.440691   2.163469
    31  H    4.070706   4.860658   4.614991   3.457901   2.181113
    32  H    5.851694   6.159989   5.362547   3.949832   3.438847
    33  H    7.210719   7.064887   5.904898   4.621260   4.843614
    34  H    9.062587   8.808080   7.566394   6.378301   6.731112
    35  H   11.463877  11.121455   9.827089   8.723806   9.164348
    36  H   12.541555  11.936879  10.564879   9.708277  10.454587
    37  H   11.539968  10.709516   9.324693   8.745632   9.758904
    38  H   11.081208  10.072377   8.725077   8.427332   9.625708
    39  H   10.968262   9.759425   8.544469   8.648716  10.008900
    40  H    8.984021   7.676067   6.606320   7.031318   8.454575
    41  H    6.693894   5.467974   4.275996   4.589901   6.010790
    42  H    5.048280   3.982620   2.646969   2.723666   4.137753
                    6          7          8          9         10
     6  C    0.000000
     7  C    2.479776   0.000000
     8  C    3.726716   1.361203   0.000000
     9  C    4.264263   2.436629   1.437822   0.000000
    10  C    5.666736   3.715338   2.473013   1.402479   0.000000
    11  C    6.536731   4.897232   3.771629   2.461253   1.398238
    12  C    7.980280   6.206935   4.977211   3.807547   2.505577
    13  C    8.609640   6.550929   5.216830   4.345840   2.943679
    14  C    9.995685   7.913335   6.568775   5.732077   4.329966
    15  C   10.776385   8.867101   7.561958   6.546616   5.168832
    16  C   10.304268   8.633974   7.412981   6.217285   4.941159
    17  C    8.950674   7.398972   6.244717   4.963255   3.788887
    18  C    8.726692   7.548507   6.569982   5.165620   4.288759
    19  C    9.912839   8.890428   7.957148   6.539946   5.701865
    20  C   10.040309   9.348311   8.570746   7.132931   6.516153
    21  C    8.990218   8.575745   7.964103   6.546033   6.193909
    22  C    7.667595   7.189537   6.595866   5.187993   4.942023
    23  C    7.475943   6.552653   5.743915   4.306098   3.773616
    24  C    6.233311   5.113339   4.274999   2.837182   2.426465
    25  C    4.971867   4.248851   3.741085   2.421152   2.762132
    26  C    3.783651   2.848975   2.479466   1.429051   2.442182
    27  H    2.154822   4.633075   5.845088   6.190771   7.573730
    28  H    3.404044   5.342771   6.162097   5.910681   7.112885
    29  H    3.881254   4.648695   4.936259   4.185111   5.128326
    30  H    1.094451   2.686577   4.043937   4.877674   6.257898
    31  H    2.689392   1.094226   2.136119   3.434207   4.606694
    32  H    4.615345   2.137338   1.094266   2.181529   2.691873
    33  H    6.233506   4.006617   2.649800   2.130160   1.090403
    34  H    8.130235   5.910201   4.550158   3.938158   2.609233
    35  H   10.568896   8.355820   6.994923   6.343092   4.966654
    36  H   11.863805   9.924080   8.606241   7.625601   6.240231
    37  H   11.108443   9.563600   8.382941   7.130414   5.912425
    38  H   10.875304   9.713007   8.697802   7.313217   6.337687
    39  H   11.070118  10.435623   9.664515   8.226706   7.592367
    40  H    9.313719   9.170260   8.685176   7.300402   7.092701
    41  H    6.910322   6.744149   6.345390   5.016026   5.071785
    42  H    5.099235   4.890203   4.613440   3.402943   3.849001
                   11         12         13         14         15
    11  C    0.000000
    12  C    1.467969   0.000000
    13  C    2.513451   1.413504   0.000000
    14  C    3.792048   2.447500   1.386288   0.000000
    15  C    4.292790   2.824821   2.409652   1.402443   0.000000
    16  C    3.784449   2.435791   2.771090   2.410479   1.386522
    17  C    2.502004   1.421380   2.437462   2.826976   2.448335
    18  C    2.891041   2.504517   3.787631   4.296385   3.794509
    19  C    4.304503   3.801641   4.951594   5.174780   4.330533
    20  C    5.158782   4.953127   6.206142   6.533630   5.716888
    21  C    4.957601   5.159004   6.532711   7.122948   6.533544
    22  C    3.809293   4.308966   5.721801   6.532935   6.206300
    23  C    2.508895   2.895546   4.308732   5.159529   4.954205
    24  C    1.431120   2.511143   3.809582   4.958631   5.160577
    25  C    2.436301   3.782189   4.949562   6.201235   6.522468
    26  C    2.861899   4.329847   5.213026   6.570591   7.154658
    27  H    8.249198   9.716818  10.500850  11.882347  12.541157
    28  H    7.368629   8.789416   9.835864  11.157729  11.557111
    29  H    5.108907   6.470725   7.618539   8.888637   9.184355
    30  H    7.268237   8.673905   9.168051  10.544761  11.422522
    31  H    5.870096   7.112040   7.311988   8.639586   9.680707
    32  H    4.088716   5.057386   4.992632   6.264624   7.398317
    33  H    2.162318   2.738040   2.609071   3.930837   5.004143
    34  H    2.739376   2.172865   1.090157   2.130802   3.388496
    35  H    4.665126   3.433952   2.152454   1.093824   2.172468
    36  H    5.386591   3.918624   3.404549   2.172332   1.093834
    37  H    4.670740   3.428763   3.860797   3.388244   2.129793
    38  H    4.951623   4.152474   5.075324   4.999834   3.922735
    39  H    6.224040   5.917854   7.102836   7.286709   6.326358
    40  H    5.923900   6.225025   7.609440   8.216750   7.612259
    41  H    4.164748   4.959917   6.360397   7.308669   7.120961
    42  H    3.418065   4.652175   5.908249   7.098371   7.276334
                   16         17         18         19         20
    16  C    0.000000
    17  C    1.413775   0.000000
    18  C    2.515571   1.469408   0.000000
    19  C    2.944042   2.514207   1.413711   0.000000
    20  C    4.330431   3.793790   2.448656   1.386434   0.000000
    21  C    5.174864   4.295978   2.826573   2.409698   1.402310
    22  C    4.952216   3.787864   2.436704   2.770082   2.409597
    23  C    3.803731   2.505899   1.422088   2.436913   2.826833
    24  C    4.307793   2.894293   2.503842   3.786453   4.295750
    25  C    5.708024   4.294813   3.790225   4.941062   5.167632
    26  C    6.559173   5.183647   4.971950   6.222928   6.547565
    27  H   11.919400  10.522104  10.060226  11.092668  10.972069
    28  H   10.708900   9.297229   8.543240   9.367294   9.016861
    29  H    8.283227   6.876088   6.092141   6.946487   6.696971
    30  H   11.052685   9.735146   9.621467  10.852412  11.045523
    31  H    9.547781   8.361242   8.589631   9.946609  10.433430
    32  H    7.452371   6.424751   6.975669   8.387004   9.138659
    33  H    5.075501   4.149672   4.945719   6.346145   7.296930
    34  H    3.861039   3.429702   4.672761   5.923611   7.119406
    35  H    3.405296   3.920772   5.390179   6.245345   7.612314
    36  H    2.152274   3.434411   4.667090   4.963030   6.326718
    37  H    1.089959   2.173628   2.742584   2.604413   3.923734
    38  H    2.602719   2.739758   2.173186   1.089943   2.129661
    39  H    4.962359   4.665957   3.434750   2.152445   1.093814
    40  H    6.245421   5.389774   3.920366   3.404750   2.172447
    41  H    5.925446   4.674618   3.429733   3.859935   3.387368
    42  H    6.322196   4.922589   4.118028   5.040153   4.967881
                   21         22         23         24         25
    21  C    0.000000
    22  C    1.386209   0.000000
    23  C    2.448708   1.413823   0.000000
    24  C    3.794556   2.515761   1.468917   0.000000
    25  C    4.326912   2.940711   2.504287   1.400839   0.000000
    26  C    5.727905   4.341831   3.810123   2.468210   1.401784
    27  H    9.758254   8.564104   8.700047   7.666038   6.288403
    28  H    7.705789   6.666192   7.124162   6.417263   5.035422
    29  H    5.458022   4.301956   4.673645   4.024070   2.689322
    30  H   10.031949   8.693531   8.420681   7.117745   5.922609
    31  H    9.669956   8.283747   7.629998   6.181542   5.343071
    32  H    8.666307   7.330264   6.334916   4.888636   4.600899
    33  H    7.112826   5.919175   4.665831   3.424510   3.852078
    34  H    7.306610   6.358253   4.957170   4.161690   5.077053
    35  H    8.216749   7.609697   6.225493   5.924732   7.100476
    36  H    7.286929   7.103235   5.919327   6.226056   7.598620
    37  H    5.000982   5.076958   4.155968   4.956016   6.343573
    38  H    3.387601   3.859784   3.429541   4.672220   5.912712
    39  H    2.172440   3.404598   3.920614   5.389529   6.238770
    40  H    1.093825   2.152174   3.434743   4.667192   4.962018
    41  H    2.129165   1.090106   2.173707   2.743202   2.606508
    42  H    3.894907   2.572804   2.704639   2.144547   1.086869
                   26         27         28         29         30
    26  C    0.000000
    27  H    5.389312   0.000000
    28  H    4.675039   2.504411   0.000000
    29  H    2.769181   4.301586   2.451184   0.000000
    30  H    4.649539   2.489111   4.315251   4.975701   0.000000
    31  H    3.943080   4.763656   5.937191   5.583950   2.430738
    32  H    3.459205   6.765801   7.237308   6.015296   4.745307
    33  H    3.413031   8.254788   8.028609   6.155769   6.673256
    34  H    5.040145  10.121684   9.715160   7.646957   8.581544
    35  H    7.326441  12.533537  11.973580   9.770934  11.029732
    36  H    8.248434  13.634964  12.634012  10.249195  12.497743
    37  H    7.330601  12.621936  11.246090   8.797467  11.906285
    38  H    7.137982  12.125155  10.444254   8.015526  11.785902
    39  H    7.625880  11.919825   9.875662   7.623325  12.088520
    40  H    6.334663   9.848937   7.632128   5.579895  10.385482
    41  H    3.930380   7.630068   5.630704   3.331876   7.969958
    42  H    2.139332   6.060228   4.428830   1.978859   6.137050
                   31         32         33         34         35
    31  H    0.000000
    32  H    2.474455   0.000000
    33  H    4.710235   2.402181   0.000000
    34  H    6.564711   4.151626   1.908823   0.000000
    35  H    8.978162   6.529435   4.357289   2.448473   0.000000
    36  H   10.713171   8.389164   6.013591   4.292819   2.511945
    37  H   10.510039   8.481524   6.124624   4.950566   4.292154
    38  H   10.745022   9.025979   6.845383   6.124987   6.007896
    39  H   11.522195  10.225979   8.346871   8.062472   8.339361
    40  H   10.259799   9.460624   8.057148   8.357152   9.310544
    41  H    7.829517   7.197387   6.124609   6.860189   8.359347
    42  H    5.968449   5.552824   4.938913   6.117271   8.045245
                   36         37         38         39         40
    36  H    0.000000
    37  H    2.446379   0.000000
    38  H    4.345318   1.898942   0.000000
    39  H    6.791917   4.345557   2.446627   0.000000
    40  H    8.339642   6.009021   4.291878   2.512333   0.000000
    41  H    8.064059   6.127300   4.949443   4.291451   2.445707
    42  H    8.325242   6.818636   6.089765   5.977376   4.323439
                   41         42
    41  H    0.000000
    42  H    1.877810   0.000000
 Framework group  CS[SG(C26H16)]
 Deg. of freedom    81
                         Standard orientation:                         
 ---------------------------------------------------------------------
 Center     Atomic      Atomic             Coordinates (Angstroms)
 Number     Number       Type             X           Y           Z
 ---------------------------------------------------------------------
      1          6           0       -4.594799   -4.028484   -0.000000
      2          6           0       -4.740232   -2.628007    0.000000
      3          6           0       -3.621509   -1.808440    0.000000
      4          6           0       -2.312964   -2.344767   -0.000000
      5          6           0       -2.171356   -3.765322   -0.000000
      6          6           0       -3.325854   -4.582720   -0.000000
      7          6           0       -0.856847   -4.351863   -0.000000
      8          6           0        0.262799   -3.577740   -0.000000
      9          6           0        0.171409   -2.142825   -0.000000
     10          6           0        1.324220   -1.344093   -0.000000
     11          6           0        1.282202    0.053514   -0.000000
     12          6           0        2.504920    0.865853   -0.000000
     13          6           0        3.786373    0.269303   -0.000000
     14          6           0        4.947091    1.027280   -0.000000
     15          6           0        4.859181    2.426965   -0.000000
     16          6           0        3.613077    3.034969   -0.000000
     17          6           0        2.415001    2.284386    0.000000
     18          6           0        1.099346    2.938766    0.000000
     19          6           0        0.977674    4.347231    0.000000
     20          6           0       -0.257368    4.977207    0.000000
     21          6           0       -1.427814    4.204854    0.000000
     22          6           0       -1.334548    2.821786    0.000000
     23          6           0       -0.087580    2.155478    0.000000
     24          6           0       -0.000000    0.689174    0.000000
     25          6           0       -1.148400   -0.113027    0.000000
     26          6           0       -1.112021   -1.514339   -0.000000
     27          1           0       -5.478791   -4.672821    0.000000
     28          1           0       -5.739142   -2.181979    0.000000
     29          1           0       -3.766794   -0.726594    0.000000
     30          1           0       -3.198013   -5.669679   -0.000000
     31          1           0       -0.777846   -5.443233   -0.000000
     32          1           0        1.256891   -4.035124   -0.000000
     33          1           0        2.283135   -1.863190   -0.000000
     34          1           0        3.879630   -0.816858   -0.000000
     35          1           0        5.922663    0.532599   -0.000000
     36          1           0        5.765346    3.039613   -0.000000
     37          1           0        3.572517    4.124173    0.000000
     38          1           0        1.872280    4.969852    0.000000
     39          1           0       -0.313253    6.069592    0.000000
     40          1           0       -2.410193    4.685879    0.000000
     41          1           0       -2.259450    2.244822    0.000000
     42          1           0       -2.120981    0.372124    0.000000
 ---------------------------------------------------------------------
 Rotational constants (GHZ):           0.4041291           0.1302569           0.0985067
   444 basis functions,   970 primitive gaussians,   470 cartesian basis functions
    86 alpha electrons       86 beta electrons
       nuclear repulsion energy      1995.1403025370 Hartrees.
 NAtoms=   42 NActive=   42 NUniq=   42 SFac= 1.00D+00 NAtFMM=   60 NAOKFM=F Big=F
 ExpMin= 1.22D-01 ExpMax= 6.67D+03 ExpMxC= 2.28D+02 IAcc=3 IRadAn=         5 AccDes= 0.00D+00
 Harris functional with IExCor=  205 and IRadAn=       5 diagonalized for initial guess.
 HarFok:  IExCor=  205 AccDes= 0.00D+00 IRadAn=         5 IDoV= 1 UseB2=F ITyADJ=14
 ICtDFT=  3500011 ScaDFX=  1.000000  1.000000  1.000000  1.000000
 FoFCou: FMM=F IPFlag=           0 FMFlag=      100000 FMFlg1=           0
         NFxFlg=           0 DoJE=T BraDBF=F KetDBF=T FulRan=T
         wScrn=  0.000000 ICntrl=       500 IOpCl=  0 I1Cent=   200000004 NGrid=           0
         NMat0=    1 NMatS0=      1 NMatT0=    0 NMatD0=    1 NMtDS0=    0 NMtDT0=    0
 Petite list used in FoFCou.
 Initial guess orbital symmetries:
       Occupied  (A') (A') (A') (A') (A') (A') (A') (A') (A') (A')
                 (A') (A') (A') (A') (A') (A') (A') (A') (A') (A')
                 (A') (A') (A') (A') (A') (A') (A') (A') (A') (A')
                 (A') (A') (A') (A') (A') (A') (A') (A') (A') (A')
                 (A') (A') (A') (A') (A') (A') (A') (A') (A') (A')
                 (A') (A') (A') (A') (A') (A') (A') (A') (A') (A')
                 (A') (A') (A') (A') (A') (A") (A") (A') (A') (A')
                 (A') (A") (A') (A") (A') (A') (A') (A") (A") (A")
                 (A") (A") (A") (A") (A") (A")
       Virtual   (A") (A") (A") (A") (A") (A") (A") (A") (A") (A')
                 (A") (A') (A") (A') (A') (A') (A') (A') (A") (A')
                 (A') (A') (A') (A') (A') (A') (A') (A") (A') (A')
                 (A') (A') (A') (A') (A') (A') (A') (A') (A') (A')
                 (A') (A') (A') (A') (A') (A') (A') (A') (A') (A')
                 (A') (A') (A') (A') (A") (A') (A") (A') (A") (A')
                 (A') (A') (A") (A') (A') (A') (A") (A') (A') (A')
                 (A') (A') (A") (A') (A') (A') (A") (A') (A") (A')
                 (A') (A') (A') (A') (A') (A") (A') (A") (A") (A')
                 (A') (A") (A') (A") (A") (A") (A') (A") (A') (A')
                 (A") (A') (A') (A') (A") (A') (A") (A') (A') (A')
                 (A") (A") (A') (A') (A") (A') (A") (A') (A") (A')
                 (A') (A') (A") (A") (A") (A') (A') (A") (A") (A')
                 (A') (A") (A') (A') (A') (A') (A') (A") (A') (A')
                 (A") (A") (A") (A') (A') (A') (A") (A') (A") (A')
                 (A") (A') (A") (A") (A') (A") (A') (A") (A') (A")
                 (A") (A') (A') (A') (A") (A') (A") (A') (A") (A")
                 (A') (A') (A') (A') (A') (A') (A') (A') (A') (A')
                 (A') (A') (A') (A") (A') (A') (A") (A') (A') (A")
                 (A") (A') (A") (A') (A') (A') (A') (A') (A") (A')
                 (A') (A") (A') (A') (A') (A") (A') (A") (A") (A')
                 (A") (A") (A') (A') (A") (A') (A') (A') (A') (A')
                 (A') (A') (A') (A") (A') (A') (A") (A') (A') (A')
                 (A") (A') (A') (A") (A') (A") (A") (A') (A") (A')
                 (A") (A') (A") (A') (A") (A") (A") (A') (A') (A")
                 (A') (A") (A') (A') (A') (A") (A') (A') (A') (A")
                 (A') (A") (A') (A') (A') (A') (A") (A") (A') (A')
                 (A') (A") (A') (A') (A') (A') (A") (A') (A') (A")
                 (A') (A') (A') (A") (A') (A') (A") (A') (A') (A")
                 (A') (A') (A') (A") (A') (A') (A') (A") (A') (A")
                 (A') (A") (A') (A') (A') (A") (A') (A') (A') (A")
                 (A') (A') (A") (A') (A') (A') (A') (A") (A') (A")
                 (A') (A') (A') (A') (A') (A') (A') (A') (A') (A')
                 (A') (A') (A') (A') (A') (A') (A') (A') (A') (A')
                 (A') (A') (A') (A') (A') (A') (A') (A') (A') (A')
                 (A') (A') (A') (A') (A') (A') (A') (A')
 The electronic state of the initial guess is 1-A'.
 Integral accuracy reduced to 1.0D-05 until final iterations.
 Initial convergence to 1.0D-05 achieved.  Increase integral accuracy.
 SCF Done:  E(RHF) =  -994.030819588     A.U. after   17 cycles
            NFock= 17  Conv=0.34D-08     -V/T= 2.0012
 ExpMin= 1.22D-01 ExpMax= 6.67D+03 ExpMxC= 2.28D+02 IAcc=3 IRadAn=         5 AccDes= 0.00D+00
 HarFok:  IExCor=  205 AccDes= 0.00D+00 IRadAn=         5 IDoV=-2 UseB2=F ITyADJ=14
 ICtDFT= 12500011 ScaDFX=  1.000000  1.000000  1.000000  1.000000
 GSVD:  LWork=        -884 too small for GESVD, short by        3770 words or        3770 for optimal perf.
 NROrb=    418 NOA=    60 NOB=    60 NVA=   358 NVB=   358

 **** Warning!!: The largest alpha MO coefficient is  0.20924762D+02

 Estimated scratch disk usage=  5147589264 words.
 Actual    scratch disk usage=  4136987280 words.
 ANorm=    0.1520722976D+01
 E2 =    -0.3362291378D+01 EUMP2 =    -0.99739311096635D+03

 **********************************************************************

            Population analysis using the SCF Density.

 **********************************************************************

 Orbital symmetries:
       Occupied  (A') (A') (A') (A') (A') (A') (A') (A') (A') (A')
                 (A') (A') (A') (A') (A') (A') (A') (A') (A') (A')
                 (A') (A') (A') (A') (A') (A') (A') (A') (A') (A')
                 (A') (A') (A') (A') (A') (A') (A') (A') (A') (A')
                 (A') (A') (A') (A') (A') (A') (A') (A') (A') (A')
                 (A') (A') (A') (A') (A') (A') (A') (A') (A') (A')
                 (A') (A') (A') (A') (A') (A") (A") (A') (A') (A')
                 (A') (A") (A') (A") (A') (A') (A') (A") (A") (A")
                 (A") (A") (A") (A") (A") (A")
       Virtual   (A") (A") (A") (A") (A") (A") (A') (A') (A") (A')
                 (A') (A') (A") (A') (A') (A') (A') (A') (A') (A")
                 (A') (A') (A") (A') (A') (A") (A') (A') (A') (A')
                 (A") (A') (A') (A') (A') (A') (A') (A') (A") (A')
                 (A') (A') (A') (A') (A') (A') (A') (A') (A') (A')
                 (A') (A') (A') (A") (A') (A') (A") (A') (A') (A")
                 (A') (A') (A") (A') (A") (A') (A') (A') (A") (A")
                 (A') (A") (A') (A') (A') (A') (A') (A') (A') (A')
                 (A') (A") (A') (A") (A') (A') (A') (A") (A") (A')
                 (A') (A") (A') (A') (A") (A") (A") (A') (A") (A')
                 (A') (A') (A") (A") (A') (A') (A") (A") (A') (A')
                 (A') (A') (A") (A') (A') (A") (A') (A') (A") (A')
                 (A') (A") (A") (A') (A") (A") (A') (A") (A') (A')
                 (A') (A") (A') (A') (A') (A') (A") (A') (A') (A")
                 (A') (A") (A") (A') (A') (A') (A') (A") (A') (A')
                 (A") (A") (A') (A") (A') (A") (A') (A') (A") (A')
                 (A") (A') (A") (A") (A') (A') (A") (A') (A") (A')
                 (A') (A") (A") (A') (A') (A') (A') (A') (A') (A')
                 (A') (A') (A') (A') (A') (A') (A") (A") (A") (A')
                 (A") (A') (A') (A") (A') (A') (A') (A") (A') (A')
                 (A') (A") (A') (A') (A") (A') (A") (A") (A") (A")
                 (A') (A') (A") (A') (A') (A') (A') (A') (A') (A')
                 (A") (A') (A") (A') (A') (A') (A") (A") (A') (A")
                 (A") (A') (A') (A") (A') (A') (A') (A") (A') (A')
                 (A') (A') (A") (A") (A') (A') (A") (A") (A') (A')
                 (A") (A') (A') (A') (A") (A') (A") (A') (A") (A')
                 (A") (A') (A') (A') (A') (A") (A') (A') (A") (A')
                 (A') (A") (A') (A') (A") (A') (A') (A') (A') (A")
                 (A') (A') (A") (A') (A') (A') (A") (A') (A') (A')
                 (A") (A') (A') (A') (A") (A') (A') (A') (A") (A')
                 (A") (A") (A') (A") (A') (A') (A') (A') (A') (A")
                 (A') (A') (A") (A') (A') (A") (A') (A") (A') (A')
                 (A') (A') (A') (A') (A') (A') (A') (A') (A') (A')
                 (A') (A') (A') (A') (A') (A') (A') (A') (A') (A')
                 (A') (A') (A') (A') (A') (A') (A') (A') (A') (A')
                 (A') (A') (A') (A') (A') (A') (A') (A')
 The electronic state is 1-A'.
 Alpha  occ. eigenvalues --  -11.25709 -11.25659 -11.25646 -11.25576 -11.25552
 Alpha  occ. eigenvalues --  -11.25551 -11.25506 -11.25437 -11.25201 -11.25154
 Alpha  occ. eigenvalues --  -11.24724 -11.24652 -11.24593 -11.24580 -11.24553
 Alpha  occ. eigenvalues --  -11.24539 -11.24521 -11.24496 -11.24489 -11.24485
 Alpha  occ. eigenvalues --  -11.24479 -11.24441 -11.24419 -11.24402 -11.24355
 Alpha  occ. eigenvalues --  -11.24348  -1.19912  -1.17978  -1.14696  -1.14362
 Alpha  occ. eigenvalues --   -1.10191  -1.06961  -1.05846  -1.04851  -1.02695
 Alpha  occ. eigenvalues --   -1.01007  -0.99079  -0.97619  -0.96964  -0.88375
 Alpha  occ. eigenvalues --   -0.86553  -0.86124  -0.84095  -0.82466  -0.80689
 Alpha  occ. eigenvalues --   -0.79538  -0.77930  -0.73298  -0.72535  -0.69631
 Alpha  occ. eigenvalues --   -0.68909  -0.67808  -0.66168  -0.65670  -0.64372
 Alpha  occ. eigenvalues --   -0.62840  -0.61770  -0.60087  -0.59673  -0.59570
 Alpha  occ. eigenvalues --   -0.59248  -0.58585  -0.57998  -0.57253  -0.56398
 Alpha  occ. eigenvalues --   -0.56030  -0.53534  -0.53367  -0.52576  -0.51822
 Alpha  occ. eigenvalues --   -0.51275  -0.49522  -0.49206  -0.48924  -0.48332
 Alpha  occ. eigenvalues --   -0.46772  -0.46204  -0.43603  -0.39881  -0.38287
 Alpha  occ. eigenvalues --   -0.37287  -0.34255  -0.32455  -0.30255  -0.27413
 Alpha  occ. eigenvalues --   -0.26643
 Alpha virt. eigenvalues --    0.06191   0.07128   0.09101   0.11482   0.13704
 Alpha virt. eigenvalues --    0.16610   0.17015   0.18137   0.18293   0.18531
 Alpha virt. eigenvalues --    0.19497   0.19926   0.19993   0.21726   0.22168
 Alpha virt. eigenvalues --    0.23608   0.23933   0.24998   0.25431   0.25640
 Alpha virt. eigenvalues --    0.28070   0.31424   0.32570   0.32967   0.33568
 Alpha virt. eigenvalues --    0.33585   0.35310   0.37997   0.38929   0.39858
 Alpha virt. eigenvalues --    0.40725   0.41445   0.42572   0.43588   0.44589
 Alpha virt. eigenvalues --    0.44725   0.45473   0.45785   0.46186   0.46478
 Alpha virt. eigenvalues --    0.47576   0.48925   0.49448   0.49816   0.52345
 Alpha virt. eigenvalues --    0.55793   0.57418   0.57877   0.58846   0.61356
 Alpha virt. eigenvalues --    0.62875   0.63338   0.64223   0.65235   0.65633
 Alpha virt. eigenvalues --    0.66220   0.66561   0.66622   0.67242   0.67596
 Alpha virt. eigenvalues --    0.68018   0.68320   0.68468   0.68700   0.69318
 Alpha virt. eigenvalues --    0.69650   0.70448   0.70654   0.70881   0.71433
 Alpha virt. eigenvalues --    0.71722   0.72249   0.72297   0.72404   0.72797
 Alpha virt. eigenvalues --    0.73517   0.73872   0.74226   0.74699   0.74861
 Alpha virt. eigenvalues --    0.75089   0.75168   0.75568   0.75740   0.75903
 Alpha virt. eigenvalues --    0.76926   0.77096   0.77468   0.77864   0.77901
 Alpha virt. eigenvalues --    0.78983   0.79494   0.80414   0.81486   0.81487
 Alpha virt. eigenvalues --    0.81846   0.83255   0.84213   0.86018   0.86386
 Alpha virt. eigenvalues --    0.87218   0.88214   0.88232   0.88500   0.88952
 Alpha virt. eigenvalues --    0.89586   0.90635   0.90771   0.91130   0.91662
 Alpha virt. eigenvalues --    0.92888   0.93784   0.94211   0.94503   0.94955
 Alpha virt. eigenvalues --    0.95962   0.96542   0.97030   0.97592   0.98570
 Alpha virt. eigenvalues --    0.99832   1.01065   1.02883   1.03131   1.06951
 Alpha virt. eigenvalues --    1.08914   1.09027   1.09609   1.09757   1.10614
 Alpha virt. eigenvalues --    1.11014   1.11654   1.12198   1.12529   1.12938
 Alpha virt. eigenvalues --    1.13580   1.14603   1.14921   1.15300   1.16347
 Alpha virt. eigenvalues --    1.16442   1.16824   1.16891   1.17123   1.17918
 Alpha virt. eigenvalues --    1.18135   1.18586   1.19015   1.19852   1.20381
 Alpha virt. eigenvalues --    1.20537   1.22074   1.22264   1.23290   1.23742
 Alpha virt. eigenvalues --    1.23811   1.24030   1.24835   1.26089   1.26117
 Alpha virt. eigenvalues --    1.26518   1.26917   1.27747   1.27952   1.27981
 Alpha virt. eigenvalues --    1.29712   1.30899   1.31508   1.31729   1.32102
 Alpha virt. eigenvalues --    1.32544   1.33759   1.34925   1.35618   1.36247
 Alpha virt. eigenvalues --    1.37234   1.38134   1.39839   1.42480   1.47214
 Alpha virt. eigenvalues --    1.48414   1.54677   1.55566   1.57055   1.58025
 Alpha virt. eigenvalues --    1.58579   1.58829   1.61201   1.61443   1.62071
 Alpha virt. eigenvalues --    1.62671   1.62859   1.64443   1.65225   1.65238
 Alpha virt. eigenvalues --    1.66119   1.67940   1.67941   1.69004   1.69895
 Alpha virt. eigenvalues --    1.70173   1.70846   1.72262   1.73151   1.73685
 Alpha virt. eigenvalues --    1.74051   1.74339   1.74737   1.74818   1.75515
 Alpha virt. eigenvalues --    1.76493   1.78454   1.78495   1.80215   1.81011
 Alpha virt. eigenvalues --    1.82459   1.83389   1.84997   1.85896   1.86219
 Alpha virt. eigenvalues --    1.86528   1.87354   1.87943   1.88283   1.89094
 Alpha virt. eigenvalues --    1.89373   1.89695   1.90618   1.90779   1.90905
 Alpha virt. eigenvalues --    1.91058   1.91474   1.92417   1.92914   1.93455
 Alpha virt. eigenvalues --    1.93524   1.94023   1.94926   1.95323   1.96275
 Alpha virt. eigenvalues --    1.97037   1.97699   1.98252   1.99391   1.99601
 Alpha virt. eigenvalues --    2.00014   2.00881   2.01396   2.01881   2.03704
 Alpha virt. eigenvalues --    2.03754   2.04005   2.05511   2.05908   2.06234
 Alpha virt. eigenvalues --    2.06771   2.07934   2.08046   2.09692   2.10729
 Alpha virt. eigenvalues --    2.10881   2.11184   2.13318   2.13411   2.14466
 Alpha virt. eigenvalues --    2.14467   2.14577   2.15614   2.15615   2.16017
 Alpha virt. eigenvalues --    2.17178   2.17342   2.17881   2.18163   2.18678
 Alpha virt. eigenvalues --    2.18861   2.19486   2.20748   2.21731   2.24116
 Alpha virt. eigenvalues --    2.25025   2.25889   2.26644   2.26726   2.26858
 Alpha virt. eigenvalues --    2.29292   2.29324   2.30489   2.31170   2.32808
 Alpha virt. eigenvalues --    2.33158   2.33333   2.35346   2.35649   2.36008
 Alpha virt. eigenvalues --    2.40340   2.41006   2.41878   2.43502   2.43719
 Alpha virt. eigenvalues --    2.44630   2.45290   2.46493   2.48576   2.48764
 Alpha virt. eigenvalues --    2.49989   2.52879   2.55498   2.56063   2.59122
 Alpha virt. eigenvalues --    2.59292   2.60640   2.60795   2.65210   2.67552
 Alpha virt. eigenvalues --    2.69804   2.69974   2.71051   2.71419   2.71649
 Alpha virt. eigenvalues --    2.72433   2.73462   2.73950   2.77005   2.77845
 Alpha virt. eigenvalues --    2.78569   2.80483   2.81236   2.82473   2.83448
 Alpha virt. eigenvalues --    2.93364   2.94227   2.95741   2.96574   2.98441
 Alpha virt. eigenvalues --    3.01008   3.02933   3.03929   3.04655   3.05959
 Alpha virt. eigenvalues --    3.06485   3.07053   3.10764   3.12253   3.14643
 Alpha virt. eigenvalues --    3.18367   3.22232   3.23100   3.29398   3.32081
 Alpha virt. eigenvalues --    3.33317   3.38359   3.64913   3.68472   3.75730
 Alpha virt. eigenvalues --    3.81480   3.91860   4.01321
          Condensed to atoms (all electrons):
 Mulliken charges:
               1
     1  C   -0.011703
     2  C    0.007494
     3  C   -0.032257
     4  C   -0.037962
     5  C   -0.101238
     6  C    0.028219
     7  C    0.033009
     8  C    0.031523
     9  C   -0.085191
    10  C    0.054366
    11  C   -0.030089
    12  C   -0.037092
    13  C   -0.024171
    14  C    0.013359
    15  C    0.011698
    16  C   -0.020384
    17  C   -0.042222
    18  C   -0.038148
    19  C   -0.020359
    20  C    0.011653
    21  C    0.014214
    22  C   -0.024662
    23  C   -0.041402
    24  C   -0.023816
    25  C    0.016433
    26  C   -0.026231
    27  H    0.029609
    28  H    0.027630
    29  H    0.017667
    30  H    0.019052
    31  H    0.019027
    32  H    0.015952
    33  H    0.015357
    34  H    0.025166
    35  H    0.025940
    36  H    0.026068
    37  H    0.025575
    38  H    0.025890
    39  H    0.026023
    40  H    0.025779
    41  H    0.019324
    42  H    0.030900
 Sum of Mulliken charges =  -0.00000
 Mulliken charges with hydrogens summed into heavy atoms:
               1
     1  C    0.017906
     2  C    0.035124
     3  C   -0.014590
     4  C   -0.037962
     5  C   -0.101238
     6  C    0.047272
     7  C    0.052036
     8  C    0.047475
     9  C   -0.085191
    10  C    0.069723
    11  C   -0.030089
    12  C   -0.037092
    13  C    0.000995
    14  C    0.039299
    15  C    0.037766
    16  C    0.005190
    17  C   -0.042222
    18  C   -0.038148
    19  C    0.005531
    20  C    0.037676
    21  C    0.039993
    22  C   -0.005338
    23  C   -0.041402
    24  C   -0.023816
    25  C    0.047334
    26  C   -0.026231
 Electronic spatial extent (au):  <R**2>=          10242.7157
 Charge=              0.0000 electrons
 Dipole moment (field-independent basis, Debye):
    X=             -0.0301    Y=              0.0263    Z=              0.0000  Tot=              0.0400
 Unable to Open any file for archive entry.
 1\1\GINC-NODE01\SP\RMP2-FC\CC-pVDZ\C26H16\XUHJ\11-Oct-2024\0\\#T MP2/c
 c-pVDZ symm=veryloose\\c1ccc2c(c1)ccc1cc3c4ccccc4c4ccccc4c3cc12\\0,1\C
 ,0,-4.594799,-4.028484,0.\C,0,-4.740232,-2.628007,0.\C,0,-3.621509,-1.
 80844,0.\C,0,-2.312964,-2.344767,0.\C,0,-2.171356,-3.765322,0.\C,0,-3.
 325854,-4.58272,0.\C,0,-0.856847,-4.351863,0.\C,0,0.262799,-3.57774,0.
 \C,0,0.171409,-2.142825,0.\C,0,1.32422,-1.344093,0.\C,0,1.282202,0.053
 514,0.\C,0,2.50492,0.865853,0.\C,0,3.786373,0.269303,0.\C,0,4.947091,1
 .02728,0.\C,0,4.859181,2.426965,0.\C,0,3.613077,3.034969,0.\C,0,2.4150
 01,2.284386,0.\C,0,1.099346,2.938766,0.\C,0,0.977674,4.347231,0.\C,0,-
 0.257368,4.977207,0.\C,0,-1.427814,4.204854,0.\C,0,-1.334548,2.821786,
 0.\C,0,-0.08758,2.155478,0.\C,0,0.,0.689174,0.\C,0,-1.1484,-0.113027,0
 .\C,0,-1.112021,-1.514339,0.\H,0,-5.478791,-4.672821,0.\H,0,-5.739142,
 -2.181979,0.\H,0,-3.766794,-0.726594,0.\H,0,-3.198013,-5.669679,0.\H,0
 ,-0.777846,-5.443233,0.\H,0,1.256891,-4.035124,0.\H,0,2.283135,-1.8631
 9,0.\H,0,3.87963,-0.816858,0.\H,0,5.922663,0.532599,0.\H,0,5.765346,3.
 039613,0.\H,0,3.572517,4.124173,0.\H,0,1.87228,4.969852,0.\H,0,-0.3132
 53,6.069592,0.\H,0,-2.410193,4.685879,0.\H,0,-2.25945,2.244822,0.\H,0,
 -2.120981,0.372124,0.\\Version=ES64L-G16RevC.01\State=1-A'\HF=-994.030
 8196\MP2=-997.393111\RMSD=3.439e-09\PG=CS [SG(C26H16)]\\@
 The archive entry for this job was punched.


 IF AT FIRST YOU DON'T SUCCEED, TRY LOOKING IN 
 THE WASTEBASKET FOR THE DIRECTIONS.
 Job cpu time:       0 days  0 hours 24 minutes 24.0 seconds.
 Elapsed time:       0 days  0 hours  3 minutes  3.0 seconds.
 File lengths (MBytes):  RWF=  31677 Int=      0 D2E=      0 Chk=     14 Scr=      1
 Normal termination of Gaussian 16 at Fri Oct 11 15:20:12 2024.
