 Entering Gaussian System, Link 0=g16
 Initial command:
 /opt/g16/l1.exe "/tmp/Gau-2515436.inp" -scrdir="/tmp/"
 Entering Link 1 = /opt/g16/l1.exe PID=   2515438.
  
 Copyright (c) 1988-2019, Gaussian, Inc.  All Rights Reserved.
  
 This is part of the Gaussian(R) 16 program.  It is based on
 the Gaussian(R) 09 system (copyright 2009, Gaussian, Inc.),
 the Gaussian(R) 03 system (copyright 2003, Gaussian, Inc.),
 the Gaussian(R) 98 system (copyright 1998, Gaussian, Inc.),
 the Gaussian(R) 94 system (copyright 1995, Gaussian, Inc.),
 the Gaussian 92(TM) system (copyright 1992, Gaussian, Inc.),
 the Gaussian 90(TM) system (copyright 1990, Gaussian, Inc.),
 the Gaussian 88(TM) system (copyright 1988, Gaussian, Inc.),
 the Gaussian 86(TM) system (copyright 1986, Carnegie Mellon
 University), and the Gaussian 82(TM) system (copyright 1983,
 Carnegie Mellon University). Gaussian is a federally registered
 trademark of Gaussian, Inc.
  
 This software contains proprietary and confidential information,
 including trade secrets, belonging to Gaussian, Inc.
  
 This software is provided under written license and may be
 used, copied, transmitted, or stored only in accord with that
 written license.
  
 The following legend is applicable only to US Government
 contracts under FAR:
  
                    RESTRICTED RIGHTS LEGEND
  
 Use, reproduction and disclosure by the US Government is
 subject to restrictions as set forth in subparagraphs (a)
 and (c) of the Commercial Computer Software - Restricted
 Rights clause in FAR 52.227-19.
  
 Gaussian, Inc.
 340 Quinnipiac St., Bldg. 40, Wallingford CT 06492
  
  
 ---------------------------------------------------------------
 Warning -- This program may not be used in any manner that
 competes with the business of Gaussian, Inc. or will provide
 assistance to any competitor of Gaussian, Inc.  The licensee
 of this program is prohibited from giving any competitor of
 Gaussian, Inc. access to this program.  By using this program,
 the user acknowledges that Gaussian, Inc. is engaged in the
 business of creating and licensing software in the field of
 computational chemistry and represents and warrants to the
 licensee that it is not a competitor of Gaussian, Inc. and that
 it will not use this program in any manner prohibited above.
 ---------------------------------------------------------------
  

 Cite this work as:
 Gaussian 16, Revision C.01,
 M. J. Frisch, G. W. Trucks, H. B. Schlegel, G. E. Scuseria, 
 M. A. Robb, J. R. Cheeseman, G. Scalmani, V. Barone, 
 G. A. Petersson, H. Nakatsuji, X. Li, M. Caricato, A. V. Marenich, 
 J. Bloino, B. G. Janesko, R. Gomperts, B. Mennucci, H. P. Hratchian, 
 J. V. Ortiz, A. F. Izmaylov, J. L. Sonnenberg, D. Williams-Young, 
 F. Ding, F. Lipparini, F. Egidi, J. Goings, B. Peng, A. Petrone, 
 T. Henderson, D. Ranasinghe, V. G. Zakrzewski, J. Gao, N. Rega, 
 G. Zheng, W. Liang, M. Hada, M. Ehara, K. Toyota, R. Fukuda, 
 J. Hasegawa, M. Ishida, T. Nakajima, Y. Honda, O. Kitao, H. Nakai, 
 T. Vreven, K. Throssell, J. A. Montgomery, Jr., J. E. Peralta, 
 F. Ogliaro, M. J. Bearpark, J. J. Heyd, E. N. Brothers, K. N. Kudin, 
 V. N. Staroverov, T. A. Keith, R. Kobayashi, J. Normand, 
 K. Raghavachari, A. P. Rendell, J. C. Burant, S. S. Iyengar, 
 J. Tomasi, M. Cossi, J. M. Millam, M. Klene, C. Adamo, R. Cammi, 
 J. W. Ochterski, R. L. Martin, K. Morokuma, O. Farkas, 
 J. B. Foresman, and D. J. Fox, Gaussian, Inc., Wallingford CT, 2019.
 
 ******************************************
 Gaussian 16:  ES64L-G16RevC.01  3-Jul-2019
                11-Oct-2024 
 ******************************************
 %nprocshared=8
 Will use up to    8 processors via shared memory.
 %mem=8800MB
 -----------------------------
 #T MP2/cc-pVDZ symm=veryloose
 -----------------------------
 ------------------------------------
 c1cc2ccc3ccc4ccc5cccc6c(c1)c2c3c4c56
 ------------------------------------
 Symbolic Z-matrix:
 Charge =  0 Multiplicity = 1
 C                     0.        2.88881  -2.74941 
 C                     0.        3.57249  -1.54085 
 C                     0.        2.86336  -0.32376 
 C                     0.        3.54468   0.93937 
 C                     0.        2.85301   2.11637 
 C                     0.        1.42002   2.1312 
 C                     0.        0.68876   3.34744 
 C                     0.       -0.68876   3.34744 
 C                     0.       -1.42002   2.1312 
 C                     0.       -2.85301   2.11637 
 C                     0.       -3.54468   0.93937 
 C                     0.       -2.86336  -0.32376 
 C                     0.       -3.57249  -1.54085 
 C                     0.       -2.88881  -2.74941 
 C                     0.       -1.48925  -2.77328 
 C                     0.       -0.73474  -1.59152 
 C                     0.        0.73474  -1.59152 
 C                     0.        1.48925  -2.77328 
 C                     0.        1.43234  -0.34374 
 C                     0.        0.71438   0.89681 
 C                     0.       -0.71438   0.89681 
 C                     0.       -1.43234  -0.34374 
 H                     0.        3.44263  -3.69279 
 H                     0.        4.66636  -1.51999 
 H                     0.        4.63886   0.93795 
 H                     0.        3.38418   3.07304 
 H                     0.        1.24058   4.29231 
 H                     0.       -1.24058   4.29231 
 H                     0.       -3.38418   3.07304 
 H                     0.       -4.63886   0.93795 
 H                     0.       -4.66636  -1.51999 
 H                     0.       -3.44263  -3.69279 
 H                     0.       -0.98853  -3.7423 
 H                     0.        0.98853  -3.7423 
 
                    Distance matrix (angstroms):
                    1          2          3          4          5
     1  C    0.000000
     2  C    1.388538   0.000000
     3  C    2.425786   1.408609   0.000000
     4  C    3.746642   2.480383   1.435172   0.000000
     5  C    4.865920   3.727326   2.440158   1.365188   0.000000
     6  C    5.096835   4.256417   2.847815   2.436111   1.433067
     7  C    6.481654   5.675499   4.266918   3.735649   2.489881
     8  C    7.068990   6.484878   5.108351   4.870402   3.749622
     9  C    6.510486   6.197512   4.937021   5.105757   4.273060
    10  C    7.526250   7.393402   6.215396   6.505063   5.706024
    11  C    7.415998   7.536956   6.531349   7.089368   6.505063
    12  C    6.242696   6.549921   5.726716   6.531349   6.215396
    13  C    6.573360   7.144982   6.549921   7.536956   7.393402
    14  C    5.777624   6.573360   6.242696   7.415998   7.526250
    15  C    4.378130   5.209619   4.994533   6.254943   6.539417
    16  C    3.804052   4.307524   3.814902   4.971805   5.159496
    17  C    2.445561   2.838208   2.477548   3.781697   4.270312
    18  C    1.399762   2.420486   2.808611   4.243653   5.076273
    19  C    2.812223   2.452211   1.431158   2.471512   2.840854
    20  C    4.245362   3.756461   2.471417   2.830625   2.461928
    21  C    5.126200   4.931475   3.780211   4.259276   3.770095
    22  C    4.945668   5.146009   4.295743   5.139760   4.941293
    23  H    1.093927   2.155856   3.418469   4.633292   5.839014
    24  H    2.161281   1.094063   2.163739   2.703077   4.063419
    25  H    4.081586   2.698448   2.178150   1.094179   2.139612
    26  H    5.843491   4.617736   3.436501   2.139696   1.094239
    27  H    7.232051   6.282008   4.893010   4.068304   2.708256
    28  H    8.163193   7.562499   6.176600   5.843020   4.635963
    29  H    8.558708   8.347656   7.111264   7.249949   6.310138
    30  H    8.382276   8.577342   7.607577   8.183546   7.583987
    31  H    7.654543   8.238872   7.624142   8.571443   8.352487
    32  H    6.401335   7.337761   7.149533   8.383287   8.566300
    33  H    4.002444   5.064506   5.150085   6.516749   7.005813
    34  H    2.144039   3.394589   3.898894   5.334040   6.148197
                    6          7          8          9         10
     6  C    0.000000
     7  C    1.419148   0.000000
     8  C    2.434379   1.377520   0.000000
     9  C    2.840044   2.434379   1.419148   0.000000
    10  C    4.273060   3.749622   2.489881   1.433067   0.000000
    11  C    5.105757   4.870402   3.735649   2.436111   1.365188
    12  C    4.937021   5.108351   4.266918   2.847815   2.440158
    13  C    6.197512   6.484878   5.675499   4.256417   3.727326
    14  C    6.510486   7.068990   6.481654   5.096835   4.865920
    15  C    5.702437   6.496685   6.172841   4.904967   5.076273
    16  C    4.301349   5.140003   4.939171   3.785267   4.270312
    17  C    3.785267   4.939171   5.140003   4.301349   5.159496
    18  C    4.904967   6.172841   6.496685   5.702437   6.539417
    19  C    2.474966   3.765325   4.257209   3.776409   4.941293
    20  C    1.421848   2.450763   2.823895   2.465641   3.770095
    21  C    2.465641   2.823895   2.450763   1.421848   2.461928
    22  C    3.776409   4.257209   3.765325   2.474966   2.840854
    23  H    6.165211   7.559673   8.162918   7.587111   8.566300
    24  H    4.885680   6.285948   7.236652   7.097548   8.352487
    25  H    3.432895   4.626978   5.847151   6.175266   7.583987
    26  H    2.178303   2.709356   4.082178   4.895659   6.310138
    27  H    2.168548   1.094204   2.148282   3.427707   4.635963
    28  H    3.427707   2.148282   1.094204   2.168548   2.708256
    29  H    4.895659   4.082178   2.709356   2.178303   1.094239
    30  H    6.175266   5.847151   4.626978   3.432895   2.139612
    31  H    7.097548   7.236652   6.285948   4.885680   4.063419
    32  H    7.587111   8.162918   7.559673   6.165211   5.839014
    33  H    6.348153   7.285438   7.096068   5.889324   6.148197
    34  H    5.889324   7.096068   7.285438   6.348153   7.005813
                   11         12         13         14         15
    11  C    0.000000
    12  C    1.435172   0.000000
    13  C    2.480383   1.408609   0.000000
    14  C    3.746642   2.425786   1.388538   0.000000
    15  C    4.243653   2.808611   2.420486   1.399762   0.000000
    16  C    3.781697   2.477548   2.838208   2.445561   1.402089
    17  C    4.971805   3.814902   4.307524   3.804052   2.518468
    18  C    6.254943   4.994533   5.209619   4.378130   2.978506
    19  C    5.139760   4.295743   5.146009   4.945668   3.799787
    20  C    4.259276   3.780211   4.931475   5.126200   4.280834
    21  C    2.830625   2.471417   3.756461   4.245362   3.750997
    22  C    2.471512   1.431158   2.452211   2.812223   2.430210
    23  H    8.383287   7.149533   7.337761   6.401335   5.016866
    24  H    8.571443   7.624142   8.238872   7.654543   6.281898
    25  H    8.183546   7.607577   8.577342   8.382276   7.164288
    26  H    7.249949   7.111264   8.347656   8.558708   7.611167
    27  H    5.843020   6.176600   7.562499   8.163193   7.574596
    28  H    4.068304   4.893010   6.282008   7.232051   7.069964
    29  H    2.139696   3.436501   4.617736   5.843491   6.145749
    30  H    1.094179   2.178150   2.698448   4.081586   4.867574
    31  H    2.703077   2.163739   1.094063   2.161281   3.415363
    32  H    4.633292   3.418469   2.155856   1.093927   2.158976
    33  H    5.334040   3.898894   3.394589   2.144039   1.090744
    34  H    6.516749   5.150085   5.064506   4.002444   2.660522
                   16         17         18         19         20
    16  C    0.000000
    17  C    1.469470   0.000000
    18  C    2.518468   1.402089   0.000000
    19  C    2.500634   1.429550   2.430210   0.000000
    20  C    2.879533   2.488411   3.750997   1.433324   0.000000
    21  C    2.488411   2.879533   4.280834   2.479385   1.428758
    22  C    1.429550   2.500634   3.799787   2.864678   2.479385
    23  H    4.676078   3.427541   2.158976   3.906078   5.339269
    24  H    5.401564   3.932271   3.415363   3.441284   4.632390
    25  H    5.939172   4.651928   4.867574   3.453189   3.924699
    26  H    6.222831   5.364486   6.145749   3.934981   3.444395
    27  H    6.206552   5.905533   7.069964   4.640010   3.436031
    28  H    5.905533   6.206552   7.574596   5.351392   3.918070
    29  H    5.364486   6.222831   7.611167   5.905360   4.640497
    30  H    4.651928   5.939172   7.164288   6.205015   5.353399
    31  H    3.932271   5.401564   6.281898   6.211091   5.898578
    32  H    3.427541   4.676078   5.016866   5.914515   6.192346
    33  H    2.165699   2.755987   2.660522   4.172624   4.941779
    34  H    2.755987   2.165699   1.090744   3.427416   4.647198
                   21         22         23         24         25
    21  C    0.000000
    22  C    1.433324   0.000000
    23  H    6.192346   5.914515   0.000000
    24  H    5.898578   6.211091   2.493708   0.000000
    25  H    5.353399   6.205015   4.782759   2.458098   0.000000
    26  H    4.640497   5.905360   6.766088   4.768639   2.476454
    27  H    3.918070   5.351392   8.283171   6.746764   4.774942
    28  H    3.436031   4.640010   9.257120   8.287019   6.769010
    29  H    3.444395   3.934981   9.611550   9.268611   8.302282
    30  H    3.924699   3.453189   9.314197   9.624373   9.277724
    31  H    4.632390   3.441284   8.395038   9.332710   9.624373
    32  H    5.339269   3.906078   6.885254   8.395038   9.314197
    33  H    4.647198   3.427416   4.431428   6.075879   7.319304
    34  H    4.941779   4.172624   2.454601   4.297100   5.935460
                   26         27         28         29         30
    26  H    0.000000
    27  H    2.466106   0.000000
    28  H    4.782784   2.481150   0.000000
    29  H    6.768370   4.782784   2.466106   0.000000
    30  H    8.302282   6.769010   4.774942   2.476454   0.000000
    31  H    9.268611   8.287019   6.746764   4.768639   2.458098
    32  H    9.611550   9.257120   8.283171   6.766088   4.782759
    33  H    8.097495   8.338092   8.038559   7.224128   5.935460
    34  H    7.224128   8.038559   8.338092   8.097495   7.319304
                   31         32         33         34
    31  H    0.000000
    32  H    2.493708   0.000000
    33  H    4.297100   2.454601   0.000000
    34  H    6.075879   4.431428   1.977050   0.000000
 Framework group  C2V[SGV(C22H12)]
 Deg. of freedom    33
                         Standard orientation:                         
 ---------------------------------------------------------------------
 Center     Atomic      Atomic             Coordinates (Angstroms)
 Number     Number       Type             X           Y           Z
 ---------------------------------------------------------------------
      1          6           0        0.000000    2.888812   -2.749414
      2          6           0        0.000000    3.572491   -1.540853
      3          6           0        0.000000    2.863358   -0.323762
      4          6           0        0.000000    3.544684    0.939374
      5          6           0        0.000000    2.853012    2.116374
      6          6           0        0.000000    1.420022    2.131199
      7          6           0        0.000000    0.688760    3.347438
      8          6           0       -0.000000   -0.688760    3.347438
      9          6           0       -0.000000   -1.420022    2.131199
     10          6           0       -0.000000   -2.853012    2.116374
     11          6           0       -0.000000   -3.544684    0.939374
     12          6           0       -0.000000   -2.863358   -0.323762
     13          6           0       -0.000000   -3.572491   -1.540853
     14          6           0       -0.000000   -2.888812   -2.749414
     15          6           0        0.000000   -1.489253   -2.773279
     16          6           0        0.000000   -0.734735   -1.591519
     17          6           0        0.000000    0.734735   -1.591519
     18          6           0        0.000000    1.489253   -2.773279
     19          6           0        0.000000    1.432339   -0.343736
     20          6           0        0.000000    0.714379    0.896809
     21          6           0       -0.000000   -0.714379    0.896809
     22          6           0       -0.000000   -1.432339   -0.343736
     23          1           0        0.000000    3.442627   -3.692794
     24          1           0        0.000000    4.666355   -1.519992
     25          1           0        0.000000    4.638862    0.937952
     26          1           0        0.000000    3.384185    3.073042
     27          1           0        0.000000    1.240575    4.292310
     28          1           0       -0.000000   -1.240575    4.292310
     29          1           0       -0.000000   -3.384185    3.073042
     30          1           0       -0.000000   -4.638862    0.937952
     31          1           0       -0.000000   -4.666355   -1.519992
     32          1           0       -0.000000   -3.442627   -3.692794
     33          1           0        0.000000   -0.988525   -3.742296
     34          1           0        0.000000    0.988525   -3.742296
 ---------------------------------------------------------------------
 Rotational constants (GHZ):           0.4459135           0.3309552           0.1899644
   368 basis functions,   810 primitive gaussians,   390 cartesian basis functions
    72 alpha electrons       72 beta electrons
       nuclear repulsion energy      1591.1213773983 Hartrees.
 NAtoms=   34 NActive=   34 NUniq=   17 SFac= 4.00D+00 NAtFMM=   60 NAOKFM=F Big=F
 ExpMin= 1.22D-01 ExpMax= 6.67D+03 ExpMxC= 2.28D+02 IAcc=3 IRadAn=         5 AccDes= 0.00D+00
 Harris functional with IExCor=  205 and IRadAn=       5 diagonalized for initial guess.
 HarFok:  IExCor=  205 AccDes= 0.00D+00 IRadAn=         5 IDoV= 1 UseB2=F ITyADJ=14
 ICtDFT=  3500011 ScaDFX=  1.000000  1.000000  1.000000  1.000000
 FoFCou: FMM=F IPFlag=           0 FMFlag=      100000 FMFlg1=           0
         NFxFlg=           0 DoJE=T BraDBF=F KetDBF=T FulRan=T
         wScrn=  0.000000 ICntrl=       500 IOpCl=  0 I1Cent=   200000004 NGrid=           0
         NMat0=    1 NMatS0=      1 NMatT0=    0 NMatD0=    1 NMtDS0=    0 NMtDT0=    0
 Petite list used in FoFCou.
 Initial guess orbital symmetries:
       Occupied  (B2) (A1) (B2) (A1) (A1) (B2) (A1) (B2) (B2) (A1)
                 (B2) (A1) (B2) (A1) (B2) (A1) (A1) (B2) (B2) (A1)
                 (A1) (B2) (A1) (B2) (A1) (B2) (A1) (A1) (A1) (B2)
                 (B2) (A1) (B2) (A1) (B2) (A1) (A1) (B2) (B2) (B2)
                 (A1) (A1) (A1) (B2) (B2) (A1) (A1) (B2) (A1) (B2)
                 (A1) (A1) (B2) (A1) (B1) (A1) (B2) (B2) (A2) (A1)
                 (B2) (B1) (B2) (A1) (A2) (B1) (B1) (A2) (B1) (A2)
                 (B1) (A2)
       Virtual   (B1) (A2) (B1) (B1) (A2) (A2) (A2) (B1) (A1) (A1)
                 (A2) (B2) (B2) (B1) (A1) (A1) (B2) (A1) (B2) (A1)
                 (A1) (B2) (A2) (B2) (A1) (B2) (B2) (A1) (B2) (A1)
                 (A1) (B2) (A1) (B2) (A1) (A1) (B2) (B2) (B2) (A1)
                 (B2) (A1) (B2) (B2) (A1) (A1) (B1) (A2) (B2) (B1)
                 (A1) (B2) (A1) (A1) (B2) (B2) (A2) (B1) (A1) (B2)
                 (A1) (A1) (B2) (B1) (B2) (A1) (A1) (A1) (A2) (B2)
                 (B2) (B1) (A1) (A1) (A2) (B1) (B2) (B1) (B2) (A2)
                 (B1) (A2) (A1) (B1) (B2) (A1) (A2) (A1) (B2) (A1)
                 (B2) (B2) (A2) (B2) (A1) (B1) (A2) (A1) (B2) (A2)
                 (B1) (B2) (B1) (B1) (A1) (B2) (B2) (A1) (B2) (A2)
                 (A1) (A2) (A1) (A2) (B1) (B2) (B1) (A1) (B2) (B2)
                 (B1) (A1) (A2) (A1) (A2) (B1) (A1) (B1) (B2) (B2)
                 (A2) (B1) (B2) (A1) (B1) (A2) (B2) (A1) (A1) (B1)
                 (A2) (A1) (B2) (A1) (B2) (A1) (A1) (B2) (B2) (B2)
                 (A1) (A2) (B2) (B1) (A1) (B2) (B1) (A1) (A2) (A1)
                 (A2) (A1) (A1) (B2) (B1) (A1) (B2) (A2) (B2) (B2)
                 (A1) (A1) (B1) (A2) (A1) (B2) (B1) (A2) (A1) (B2)
                 (B2) (A1) (A2) (A1) (B1) (B2) (A1) (B2) (A1) (B2)
                 (B1) (B2) (A1) (B1) (A2) (A1) (A2) (A1) (B2) (B1)
                 (B2) (B1) (A1) (A2) (B2) (B2) (A1) (B1) (A2) (A1)
                 (B2) (A2) (B2) (A1) (A1) (B1) (B1) (B2) (A1) (A2)
                 (A2) (A1) (B2) (B2) (B1) (B2) (B2) (A1) (B2) (B2)
                 (A1) (A2) (B2) (A1) (A2) (B1) (B2) (A1) (A1) (B1)
                 (B2) (A2) (A1) (B2) (A1) (B2) (A1) (B2) (B2) (A1)
                 (A2) (A2) (B2) (A1) (B1) (B1) (B2) (A1) (A1) (B2)
                 (A1) (B2) (A1) (B2) (A2) (A2) (B2) (A1) (A1) (B2)
                 (A1) (B2) (A1) (A1) (B2) (B2) (B2) (A1) (A1) (A1)
                 (B2) (A1) (B2) (B2) (A1) (A1) (B2) (B2) (B2) (B2)
                 (B2) (A1) (B2) (A1) (B2) (B2)
 The electronic state of the initial guess is 1-A1.
 Integral accuracy reduced to 1.0D-05 until final iterations.
 Problem detected with inexpensive integrals.
 Switching to full accuracy and repeating last cycle.
 SCF Done:  E(RHF) =  -840.236881650     A.U. after   21 cycles
            NFock= 21  Conv=0.51D-08     -V/T= 2.0012
 ExpMin= 1.22D-01 ExpMax= 6.67D+03 ExpMxC= 2.28D+02 IAcc=3 IRadAn=         5 AccDes= 0.00D+00
 HarFok:  IExCor=  205 AccDes= 0.00D+00 IRadAn=         5 IDoV=-2 UseB2=F ITyADJ=14
 ICtDFT= 12500011 ScaDFX=  1.000000  1.000000  1.000000  1.000000
 GSVD:  LWork=        -660 too small for GESVD, short by        2750 words or        2750 for optimal perf.
 NROrb=    346 NOA=    50 NOB=    50 NVA=   296 NVB=   296

 **** Warning!!: The largest alpha MO coefficient is  0.23090019D+02

 Estimated scratch disk usage=  1555097280 words.
 Actual    scratch disk usage=  1171209920 words.
 (rs|ai) integrals will be sorted in core.
 ANorm=    0.1453071533D+01
 E2 =    -0.2832955646D+01 EUMP2 =    -0.84306983729590D+03

 **********************************************************************

            Population analysis using the SCF Density.

 **********************************************************************

 Orbital symmetries:
       Occupied  (A1) (B2) (A1) (B2) (A1) (B2) (A1) (B2) (A1) (B2)
                 (A1) (B2) (A1) (B2) (A1) (B2) (A1) (B2) (B2) (A1)
                 (B2) (A1) (A1) (B2) (A1) (B2) (A1) (A1) (A1) (B2)
                 (B2) (A1) (B2) (A1) (B2) (A1) (A1) (B2) (B2) (B2)
                 (A1) (A1) (A1) (B2) (B2) (A1) (A1) (B2) (A1) (B2)
                 (A1) (A1) (B2) (B1) (A1) (B2) (B2) (A1) (A2) (B2)
                 (A1) (B1) (B2) (A1) (A2) (B1) (B1) (B1) (A2) (A2)
                 (B1) (A2)
       Virtual   (B1) (A2) (B1) (B1) (A2) (A1) (A1) (B2) (A2) (B2)
                 (A1) (B2) (A1) (A2) (A1) (B1) (B2) (A1) (B2) (B2)
                 (A2) (A1) (B1) (A1) (B2) (B2) (A1) (B2) (A1) (B2)
                 (A1) (A1) (A1) (A2) (B2) (B2) (A1) (B2) (A1) (A1)
                 (B2) (B2) (A1) (B2) (B1) (A1) (B2) (A1) (A2) (B1)
                 (B2) (A1) (B2) (A1) (B1) (B2) (A2) (B2) (A1) (B1)
                 (B2) (A1) (A1) (B2) (B1) (A1) (B2) (A2) (B2) (A1)
                 (A1) (A1) (A2) (A1) (B2) (B1) (B1) (A2) (B2) (B1)
                 (A2) (B2) (A1) (B1) (A2) (B2) (A1) (A1) (A2) (B2)
                 (B2) (A1) (B1) (A1) (B2) (A1) (A2) (B2) (A2) (B1)
                 (B2) (B1) (B2) (B1) (A1) (B2) (B2) (A1) (A1) (A2)
                 (A2) (A1) (B2) (B1) (A2) (B2) (B1) (A1) (B2) (A1)
                 (A1) (B2) (B1) (B2) (A2) (A2) (A1) (B1) (B1) (B2)
                 (B2) (A1) (A2) (B1) (A1) (B2) (A1) (B1) (A2) (A1)
                 (B2) (B1) (A2) (A1) (B2) (A1) (A1) (B2) (B2) (B2)
                 (A1) (B2) (A2) (B2) (A1) (A1) (B1) (A2) (B1) (A1)
                 (A2) (B2) (B1) (A2) (A1) (A1) (B2) (A1) (A1) (B1)
                 (B2) (A2) (B2) (A1) (A2) (B1) (B2) (A1) (B2) (A1)
                 (B2) (B1) (A2) (A1) (A1) (B2) (B1) (A2) (A1) (B1)
                 (B2) (A1) (A2) (A1) (B2) (B2) (B1) (A1) (B2) (A1)
                 (B2) (B1) (A2) (B2) (A1) (A1) (B2) (A2) (B1) (B2)
                 (B2) (A1) (A2) (A1) (B1) (A1) (A1) (B1) (B2) (B2)
                 (A2) (B2) (B1) (A2) (B2) (A1) (B2) (A1) (B2) (B2)
                 (A1) (A2) (B2) (A1) (A2) (B2) (B1) (A1) (B1) (A1)
                 (A2) (B2) (A1) (A1) (B2) (B2) (A1) (B2) (B2) (A1)
                 (A2) (A2) (A1) (B2) (B1) (B1) (B2) (A1) (B2) (A1)
                 (A1) (B2) (A1) (B2) (A2) (A2) (B2) (A1) (A1) (A1)
                 (B2) (B2) (A1) (B2) (A1) (B2) (B2) (A1) (A1) (A1)
                 (B2) (B2) (A1) (A1) (B2) (B2) (A1) (B2) (B2) (B2)
                 (B2) (A1) (B2) (A1) (B2) (B2)
 The electronic state is 1-A1.
 Alpha  occ. eigenvalues --  -11.25768 -11.25691 -11.25380 -11.25362 -11.25305
 Alpha  occ. eigenvalues --  -11.25262 -11.25232 -11.25229 -11.25182 -11.25148
 Alpha  occ. eigenvalues --  -11.24739 -11.24738 -11.24705 -11.24657 -11.24656
 Alpha  occ. eigenvalues --  -11.24594 -11.24593 -11.24577 -11.24509 -11.24509
 Alpha  occ. eigenvalues --  -11.24460 -11.24460  -1.20879  -1.16777  -1.15347
 Alpha  occ. eigenvalues --   -1.10613  -1.09614  -1.07224  -1.02562  -1.02404
 Alpha  occ. eigenvalues --   -1.01124  -0.98458  -0.95989  -0.87580  -0.86302
 Alpha  occ. eigenvalues --   -0.85591  -0.84898  -0.82545  -0.76509  -0.74819
 Alpha  occ. eigenvalues --   -0.73691  -0.72238  -0.69384  -0.67535  -0.65124
 Alpha  occ. eigenvalues --   -0.64650  -0.63159  -0.62889  -0.61397  -0.58947
 Alpha  occ. eigenvalues --   -0.58792  -0.58307  -0.57044  -0.56970  -0.56913
 Alpha  occ. eigenvalues --   -0.54028  -0.52991  -0.52037  -0.51900  -0.51070
 Alpha  occ. eigenvalues --   -0.50738  -0.50196  -0.46282  -0.46057  -0.44131
 Alpha  occ. eigenvalues --   -0.43036  -0.39680  -0.34140  -0.34019  -0.32915
 Alpha  occ. eigenvalues --   -0.28078  -0.24954
 Alpha virt. eigenvalues --    0.04835   0.08062   0.11426   0.12602   0.13666
 Alpha virt. eigenvalues --    0.18026   0.18857   0.18920   0.20371   0.20521
 Alpha virt. eigenvalues --    0.20963   0.22223   0.23250   0.23906   0.24746
 Alpha virt. eigenvalues --    0.25560   0.25864   0.28263   0.29901   0.32661
 Alpha virt. eigenvalues --    0.34850   0.36740   0.37320   0.39793   0.39987
 Alpha virt. eigenvalues --    0.41794   0.41993   0.42175   0.44780   0.45359
 Alpha virt. eigenvalues --    0.46130   0.46744   0.47661   0.48277   0.49317
 Alpha virt. eigenvalues --    0.50273   0.50648   0.54260   0.57762   0.60629
 Alpha virt. eigenvalues --    0.61229   0.62450   0.64006   0.65244   0.65524
 Alpha virt. eigenvalues --    0.65651   0.66319   0.66653   0.67211   0.67449
 Alpha virt. eigenvalues --    0.67646   0.68060   0.68945   0.70061   0.70156
 Alpha virt. eigenvalues --    0.70343   0.70347   0.70867   0.71013   0.71611
 Alpha virt. eigenvalues --    0.72473   0.72549   0.73695   0.74199   0.74207
 Alpha virt. eigenvalues --    0.74515   0.75324   0.75371   0.76114   0.76181
 Alpha virt. eigenvalues --    0.76674   0.76736   0.77005   0.77546   0.78538
 Alpha virt. eigenvalues --    0.78916   0.80719   0.80764   0.81857   0.83811
 Alpha virt. eigenvalues --    0.84750   0.85074   0.85899   0.86399   0.87975
 Alpha virt. eigenvalues --    0.89601   0.89625   0.90326   0.91637   0.91707
 Alpha virt. eigenvalues --    0.92471   0.92937   0.93779   0.93966   0.94724
 Alpha virt. eigenvalues --    0.95416   0.95967   0.98944   1.00095   1.00739
 Alpha virt. eigenvalues --    1.02209   1.03713   1.05912   1.06619   1.08669
 Alpha virt. eigenvalues --    1.09349   1.11422   1.11713   1.12588   1.12889
 Alpha virt. eigenvalues --    1.13567   1.13863   1.14440   1.14530   1.14618
 Alpha virt. eigenvalues --    1.15141   1.15207   1.15358   1.16690   1.18337
 Alpha virt. eigenvalues --    1.18731   1.18731   1.18902   1.19794   1.19901
 Alpha virt. eigenvalues --    1.21641   1.21695   1.21889   1.22589   1.24724
 Alpha virt. eigenvalues --    1.25039   1.26070   1.26688   1.27208   1.27656
 Alpha virt. eigenvalues --    1.28768   1.29163   1.29263   1.30042   1.31905
 Alpha virt. eigenvalues --    1.33243   1.34133   1.34434   1.35860   1.37328
 Alpha virt. eigenvalues --    1.39274   1.41773   1.41829   1.45691   1.47149
 Alpha virt. eigenvalues --    1.57607   1.59030   1.60507   1.60697   1.60735
 Alpha virt. eigenvalues --    1.61750   1.61776   1.61835   1.63100   1.63982
 Alpha virt. eigenvalues --    1.65907   1.65956   1.67851   1.68853   1.69022
 Alpha virt. eigenvalues --    1.69317   1.70422   1.70629   1.72622   1.73146
 Alpha virt. eigenvalues --    1.74183   1.74537   1.75220   1.76926   1.78560
 Alpha virt. eigenvalues --    1.79167   1.79700   1.79907   1.82038   1.82954
 Alpha virt. eigenvalues --    1.84702   1.86090   1.86322   1.86886   1.87298
 Alpha virt. eigenvalues --    1.87807   1.89288   1.90683   1.90913   1.91419
 Alpha virt. eigenvalues --    1.91510   1.91555   1.93310   1.94311   1.94981
 Alpha virt. eigenvalues --    1.96073   1.96552   1.96579   1.98357   1.99205
 Alpha virt. eigenvalues --    2.00493   2.00785   2.01147   2.01653   2.02223
 Alpha virt. eigenvalues --    2.03160   2.03965   2.03979   2.04441   2.05253
 Alpha virt. eigenvalues --    2.06166   2.06173   2.07603   2.08196   2.09866
 Alpha virt. eigenvalues --    2.09897   2.10395   2.11046   2.11985   2.12699
 Alpha virt. eigenvalues --    2.13001   2.14336   2.15529   2.16068   2.17101
 Alpha virt. eigenvalues --    2.17196   2.18210   2.19023   2.20154   2.21276
 Alpha virt. eigenvalues --    2.22883   2.24382   2.24445   2.25610   2.29375
 Alpha virt. eigenvalues --    2.30168   2.30856   2.31226   2.35286   2.36038
 Alpha virt. eigenvalues --    2.36190   2.36534   2.37645   2.41988   2.42170
 Alpha virt. eigenvalues --    2.43499   2.44661   2.45636   2.45985   2.46775
 Alpha virt. eigenvalues --    2.48319   2.49582   2.51437   2.52206   2.52659
 Alpha virt. eigenvalues --    2.54127   2.59272   2.60024   2.61175   2.61939
 Alpha virt. eigenvalues --    2.65421   2.67644   2.71708   2.72574   2.72827
 Alpha virt. eigenvalues --    2.73242   2.75242   2.76082   2.82111   2.83431
 Alpha virt. eigenvalues --    2.84043   2.85077   2.91809   2.93256   2.93553
 Alpha virt. eigenvalues --    2.94759   2.99223   3.00641   3.02304   3.04339
 Alpha virt. eigenvalues --    3.05737   3.08452   3.11680   3.13180   3.13221
 Alpha virt. eigenvalues --    3.16622   3.18551   3.19473   3.27696   3.37536
 Alpha virt. eigenvalues --    3.57245   3.69679   3.74786   3.78886   3.83001
 Alpha virt. eigenvalues --    3.97039
          Condensed to atoms (all electrons):
 Mulliken charges:
               1
     1  C    0.023974
     2  C    0.021683
     3  C   -0.101376
     4  C    0.034082
     5  C    0.038968
     6  C   -0.123906
     7  C    0.034056
     8  C    0.034056
     9  C   -0.123906
    10  C    0.038968
    11  C    0.034082
    12  C   -0.101376
    13  C    0.021683
    14  C    0.023974
    15  C   -0.029550
    16  C   -0.041310
    17  C   -0.041310
    18  C   -0.029550
    19  C   -0.007762
    20  C    0.029609
    21  C    0.029609
    22  C   -0.007762
    23  H    0.027921
    24  H    0.016494
    25  H    0.018806
    26  H    0.018537
    27  H    0.017727
    28  H    0.017727
    29  H    0.018537
    30  H    0.018806
    31  H    0.016494
    32  H    0.027921
    33  H    0.022046
    34  H    0.022046
 Sum of Mulliken charges =  -0.00000
 Mulliken charges with hydrogens summed into heavy atoms:
               1
     1  C    0.051895
     2  C    0.038177
     3  C   -0.101376
     4  C    0.052888
     5  C    0.057505
     6  C   -0.123906
     7  C    0.051783
     8  C    0.051783
     9  C   -0.123906
    10  C    0.057505
    11  C    0.052888
    12  C   -0.101376
    13  C    0.038177
    14  C    0.051895
    15  C   -0.007504
    16  C   -0.041310
    17  C   -0.041310
    18  C   -0.007504
    19  C   -0.007762
    20  C    0.029609
    21  C    0.029609
    22  C   -0.007762
 Electronic spatial extent (au):  <R**2>=           5465.6414
 Charge=             -0.0000 electrons
 Dipole moment (field-independent basis, Debye):
    X=             -0.0000    Y=              0.0000    Z=             -0.0627  Tot=              0.0627
 Unable to Open any file for archive entry.
 1\1\GINC-NODE01\SP\RMP2-FC\CC-pVDZ\C22H12\XUHJ\11-Oct-2024\0\\#T MP2/c
 c-pVDZ symm=veryloose\\c1cc2ccc3ccc4ccc5cccc6c(c1)c2c3c4c56\\0,1\C,0,0
 .,2.888812,-2.749414\C,0,0.,3.572491,-1.540853\C,0,0.,2.863358,-0.3237
 62\C,0,0.,3.544684,0.939374\C,0,0.,2.853012,2.116374\C,0,0.,1.420022,2
 .131199\C,0,0.,0.68876,3.347438\C,0,0.,-0.68876,3.347438\C,0,0.,-1.420
 022,2.131199\C,0,0.,-2.853012,2.116374\C,0,0.,-3.544684,0.939374\C,0,0
 .,-2.863358,-0.323762\C,0,0.,-3.572491,-1.540853\C,0,0.,-2.888812,-2.7
 49414\C,0,0.,-1.489253,-2.773279\C,0,0.,-0.734735,-1.591519\C,0,0.,0.7
 34735,-1.591519\C,0,0.,1.489253,-2.773279\C,0,0.,1.432339,-0.343736\C,
 0,0.,0.714379,0.896809\C,0,0.,-0.714379,0.896809\C,0,0.,-1.432339,-0.3
 43736\H,0,0.,3.442627,-3.692794\H,0,0.,4.666355,-1.519992\H,0,0.,4.638
 862,0.937952\H,0,0.,3.384185,3.073042\H,0,0.,1.240575,4.29231\H,0,0.,-
 1.240575,4.29231\H,0,0.,-3.384185,3.073042\H,0,0.,-4.638862,0.937952\H
 ,0,0.,-4.666355,-1.519992\H,0,0.,-3.442627,-3.692794\H,0,0.,-0.988525,
 -3.742296\H,0,0.,0.988525,-3.742296\\Version=ES64L-G16RevC.01\State=1-
 A1\HF=-840.2368817\MP2=-843.0698373\RMSD=5.063e-09\PG=C02V [SGV(C22H12
 )]\\@
 The archive entry for this job was punched.


 GETTING A SIMPLE ANSWER FROM A PROFESSOR IS LIKE
 GETTING A THIMBLE OF WATER FROM A FIRE HYDRANT.
     -- PROF. LEN SHAPIRO, NDSU
 Job cpu time:       0 days  0 hours  6 minutes 56.9 seconds.
 Elapsed time:       0 days  0 hours  0 minutes 52.1 seconds.
 File lengths (MBytes):  RWF=   9016 Int=      0 D2E=      0 Chk=     10 Scr=      1
 Normal termination of Gaussian 16 at Fri Oct 11 15:21:05 2024.
