 Entering Gaussian System, Link 0=g16
 Initial command:
 /opt/g16/l1.exe "/tmp/Gau-1441747.inp" -scrdir="/tmp/"
 Entering Link 1 = /opt/g16/l1.exe PID=   1441748.
  
 Copyright (c) 1988-2019, Gaussian, Inc.  All Rights Reserved.
  
 This is part of the Gaussian(R) 16 program.  It is based on
 the Gaussian(R) 09 system (copyright 2009, Gaussian, Inc.),
 the Gaussian(R) 03 system (copyright 2003, Gaussian, Inc.),
 the Gaussian(R) 98 system (copyright 1998, Gaussian, Inc.),
 the Gaussian(R) 94 system (copyright 1995, Gaussian, Inc.),
 the Gaussian 92(TM) system (copyright 1992, Gaussian, Inc.),
 the Gaussian 90(TM) system (copyright 1990, Gaussian, Inc.),
 the Gaussian 88(TM) system (copyright 1988, Gaussian, Inc.),
 the Gaussian 86(TM) system (copyright 1986, Carnegie Mellon
 University), and the Gaussian 82(TM) system (copyright 1983,
 Carnegie Mellon University). Gaussian is a federally registered
 trademark of Gaussian, Inc.
  
 This software contains proprietary and confidential information,
 including trade secrets, belonging to Gaussian, Inc.
  
 This software is provided under written license and may be
 used, copied, transmitted, or stored only in accord with that
 written license.
  
 The following legend is applicable only to US Government
 contracts under FAR:
  
                    RESTRICTED RIGHTS LEGEND
  
 Use, reproduction and disclosure by the US Government is
 subject to restrictions as set forth in subparagraphs (a)
 and (c) of the Commercial Computer Software - Restricted
 Rights clause in FAR 52.227-19.
  
 Gaussian, Inc.
 340 Quinnipiac St., Bldg. 40, Wallingford CT 06492
  
  
 ---------------------------------------------------------------
 Warning -- This program may not be used in any manner that
 competes with the business of Gaussian, Inc. or will provide
 assistance to any competitor of Gaussian, Inc.  The licensee
 of this program is prohibited from giving any competitor of
 Gaussian, Inc. access to this program.  By using this program,
 the user acknowledges that Gaussian, Inc. is engaged in the
 business of creating and licensing software in the field of
 computational chemistry and represents and warrants to the
 licensee that it is not a competitor of Gaussian, Inc. and that
 it will not use this program in any manner prohibited above.
 ---------------------------------------------------------------
  

 Cite this work as:
 Gaussian 16, Revision C.01,
 M. J. Frisch, G. W. Trucks, H. B. Schlegel, G. E. Scuseria, 
 M. A. Robb, J. R. Cheeseman, G. Scalmani, V. Barone, 
 G. A. Petersson, H. Nakatsuji, X. Li, M. Caricato, A. V. Marenich, 
 J. Bloino, B. G. Janesko, R. Gomperts, B. Mennucci, H. P. Hratchian, 
 J. V. Ortiz, A. F. Izmaylov, J. L. Sonnenberg, D. Williams-Young, 
 F. Ding, F. Lipparini, F. Egidi, J. Goings, B. Peng, A. Petrone, 
 T. Henderson, D. Ranasinghe, V. G. Zakrzewski, J. Gao, N. Rega, 
 G. Zheng, W. Liang, M. Hada, M. Ehara, K. Toyota, R. Fukuda, 
 J. Hasegawa, M. Ishida, T. Nakajima, Y. Honda, O. Kitao, H. Nakai, 
 T. Vreven, K. Throssell, J. A. Montgomery, Jr., J. E. Peralta, 
 F. Ogliaro, M. J. Bearpark, J. J. Heyd, E. N. Brothers, K. N. Kudin, 
 V. N. Staroverov, T. A. Keith, R. Kobayashi, J. Normand, 
 K. Raghavachari, A. P. Rendell, J. C. Burant, S. S. Iyengar, 
 J. Tomasi, M. Cossi, J. M. Millam, M. Klene, C. Adamo, R. Cammi, 
 J. W. Ochterski, R. L. Martin, K. Morokuma, O. Farkas, 
 J. B. Foresman, and D. J. Fox, Gaussian, Inc., Wallingford CT, 2019.
 
 ******************************************
 Gaussian 16:  ES64L-G16RevC.01  3-Jul-2019
                15-Aug-2025 
 ******************************************
 %nprocshared=32
 Will use up to   32 processors via shared memory.
 %mem=32000MB
 -----------------------------
 #T MP2/cc-pVDZ symm=veryloose
 -----------------------------
 ----------------------------------
 c1ccc2cc3c(cc2c1)-c1cccc2cccc-3c12
 ----------------------------------
 Symbolic Z-matrix:
 Charge =  0 Multiplicity = 1
 C                     0.        0.70802  -5.04053 
 C                     0.       -0.70802  -5.04053 
 C                     0.       -1.40227  -3.84641 
 C                     0.       -0.71936  -2.6011 
 C                     0.       -1.42238  -1.35939 
 C                     0.       -0.72572  -0.17506 
 C                     0.        0.72572  -0.17506 
 C                     0.        1.42238  -1.35939 
 C                     0.        0.71936  -2.6011 
 C                     0.        1.40227  -3.84641 
 C                     0.        1.1761    1.23 
 C                     0.        2.40349   1.86721 
 C                     0.        2.43466   3.29115 
 C                     0.        1.28038   4.06177 
 C                     0.        0.        3.43469 
 C                     0.       -1.28038   4.06177 
 C                     0.       -2.43466   3.29115 
 C                     0.       -2.40349   1.86721 
 C                     0.       -1.1761    1.23 
 C                     0.        0.        2.02779 
 H                     0.        1.25099  -5.99031 
 H                     0.       -1.25099  -5.99031 
 H                     0.       -2.49683  -3.84368 
 H                     0.       -2.51665  -1.37039 
 H                     0.        2.51665  -1.37039 
 H                     0.        2.49683  -3.84368 
 H                     0.        3.3418    1.30503 
 H                     0.        3.40751   3.79216 
 H                     0.        1.35032   5.15384 
 H                     0.       -1.35032   5.15384 
 H                     0.       -3.40751   3.79216 
 H                     0.       -3.3418    1.30503 
 
                    Distance matrix (angstroms):
                    1          2          3          4          5
     1  C    0.000000
     2  C    1.416034   0.000000
     3  C    2.424715   1.381270   0.000000
     4  C    2.826338   2.439450   1.420270   0.000000
     5  C    4.253152   3.749805   2.487097   1.426910   0.000000
     6  C    5.072316   4.865502   3.733171   2.426054   1.374041
     7  C    4.865502   5.072316   4.243488   2.823817   2.452949
     8  C    3.749805   4.253152   3.763494   2.475653   2.844750
     9  C    2.439450   2.826338   2.460105   1.438716   2.475653
    10  C    1.381270   2.424715   2.804548   2.460105   3.763494
    11  C    6.287974   6.547473   5.693676   4.274354   3.668381
    12  C    7.112767   7.576168   6.865080   5.451423   5.004822
    13  C    8.508713   8.904681   8.103512   6.683303   6.041883
    14  C    9.120277   9.316952   8.350809   6.956498   6.057554
    15  C    8.504739   8.504739   7.414904   6.078509   5.000640
    16  C    9.316952   9.120277   7.909122   6.686453   5.423026
    17  C    8.904681   8.508713   7.211841   6.136852   4.759446
    18  C    7.576168   7.112767   5.800681   4.775157   3.372472
    19  C    6.547473   6.287974   5.081448   3.858234   2.601082
    20  C    7.103693   7.103693   6.039260   4.684460   3.673717
    21  H    1.094028   2.177101   3.411169   3.920326   5.347167
    22  H    2.177101   1.094028   2.149227   3.430646   4.634082
    23  H    3.421035   2.152276   1.094559   2.168734   2.706683
    24  H    4.885531   4.091588   2.715241   2.178284   1.094330
    25  H    4.091588   4.885531   4.635587   3.462140   3.939040
    26  H    2.152276   3.421035   3.899105   3.447879   4.640242
    27  H    6.870431   7.527750   7.003107   5.634787   5.458615
    28  H    9.235991   9.744425   9.026721   7.609518   7.061603
    29  H   10.214576  10.400085   9.411759   8.026371   7.078842
    30  H   10.400085  10.214576   9.000396   7.780564   6.513629
    31  H    9.744425   9.235991   7.897383   6.935409   5.520799
    32  H    7.527750   6.870431   5.504456   4.704787   3.283796
                    6          7          8          9         10
     6  C    0.000000
     7  C    1.451436   0.000000
     8  C    2.452949   1.374041   0.000000
     9  C    2.823817   2.426054   1.426910   0.000000
    10  C    4.243488   3.733171   2.487097   1.420270   0.000000
    11  C    2.364547   1.475475   2.601082   3.858234   5.081448
    12  C    3.736685   2.643063   3.372472   4.775157   5.800681
    13  C    4.690696   3.864597   4.759446   6.136852   7.211841
    14  C    4.687768   4.272982   5.423026   6.686453   7.909122
    15  C    3.681975   3.681975   5.000640   6.078509   7.414904
    16  C    4.272982   4.687768   6.057554   6.956498   8.350809
    17  C    3.864597   4.690696   6.041883   6.683303   8.103512
    18  C    2.643063   3.736685   5.004822   5.451423   6.865080
    19  C    1.475475   2.364547   3.668381   4.274354   5.693676
    20  C    2.319314   2.319314   3.673717   4.684460   6.039260
    21  H    6.142026   5.838924   4.634082   3.430646   2.149227
    22  H    5.838924   6.142026   5.347167   3.920326   3.411169
    23  H    4.073776   4.882993   4.640242   3.447879   3.899105
    24  H    2.153195   3.455685   3.939040   3.462140   4.635587
    25  H    3.455685   2.153195   1.094330   2.178284   2.715241
    26  H    4.882993   4.073776   2.706683   2.168734   1.094559
    27  H    4.328433   3.005748   3.283796   4.704787   5.504456
    28  H    5.729077   4.788608   5.520799   6.935409   7.897383
    29  H    5.719006   5.365372   6.513629   7.780564   9.000396
    30  H    5.365372   5.719006   7.078842   8.026371   9.411759
    31  H    4.788608   5.729077   7.061603   7.609518   9.026721
    32  H    3.005748   4.328433   5.458615   5.634787   7.003107
                   11         12         13         14         15
    11  C    0.000000
    12  C    1.382947   0.000000
    13  C    2.415025   1.424285   0.000000
    14  C    2.833691   2.465255   1.387882   0.000000
    15  C    2.498770   2.869456   2.438891   1.425698   0.000000
    16  C    3.748762   4.288014   3.794132   2.560768   1.425698
    17  C    4.157635   5.043351   4.869328   3.794132   2.438891
    18  C    3.635862   4.806988   5.043351   4.288014   2.869456
    19  C    2.352190   3.635862   4.157635   3.748762   2.498770
    20  C    1.421152   2.408853   2.742930   2.403425   1.406896
    21  H    7.220696   7.941589   9.356634  10.052122   9.507656
    22  H    7.617320   8.665782   9.986466  10.365912   9.507656
    23  H    6.263596   7.525121   8.673264   8.761481   7.694729
    24  H    4.516456   5.889808   6.800401   6.627655   5.424231
    25  H    2.925594   3.239572   4.662260   5.571059   5.424231
    26  H    5.242766   5.711654   7.135106   7.998496   7.694729
    27  H    2.167003   1.093832   2.183484   3.442251   3.962713
    28  H    3.397622   2.171051   1.094271   2.144143   3.426207
    29  H    3.927700   3.451244   2.155315   1.094300   2.186053
    30  H    4.666825   4.989292   4.218494   2.848370   2.186053
    31  H    5.251100   6.121533   5.863615   4.695639   3.426207
    32  H    4.518517   5.772733   6.108374   5.381843   3.962713
                   16         17         18         19         20
    16  C    0.000000
    17  C    1.387882   0.000000
    18  C    2.465255   1.424285   0.000000
    19  C    2.833691   2.415025   1.382947   0.000000
    20  C    2.403425   2.742930   2.408853   1.421152   0.000000
    21  H   10.365912   9.986466   8.665782   7.617320   8.115104
    22  H   10.052122   9.356634   7.941589   7.220696   8.115104
    23  H    7.998496   7.135106   5.711654   5.242766   6.380313
    24  H    5.571059   4.662260   3.239572   2.925594   4.228611
    25  H    6.627655   6.800401   5.889808   4.516456   4.228611
    26  H    8.761481   8.673264   7.525121   6.263596   6.380313
    27  H    5.381843   6.108374   5.772733   4.518517   3.419067
    28  H    4.695639   5.863615   6.121533   5.251100   3.837197
    29  H    2.848370   4.218494   4.989292   4.666825   3.405216
    30  H    1.094300   2.155315   3.451244   3.927700   3.405216
    31  H    2.144143   1.094271   2.171051   3.397622   3.837197
    32  H    3.442251   2.183484   1.093832   2.167003   3.419067
                   21         22         23         24         25
    21  H    0.000000
    22  H    2.501970   0.000000
    23  H    4.319041   2.481961   0.000000
    24  H    5.961438   4.790154   2.473375   0.000000
    25  H    4.790154   5.961438   5.590364   5.033300   0.000000
    26  H    2.481961   4.319041   4.993660   5.590364   2.473375
    27  H    7.589029   8.620645   7.784521   6.440438   2.799766
    28  H   10.017343  10.835041   9.652317   7.857956   5.238841
    29  H   11.144585  11.443719   9.785493   7.584123   6.627653
    30  H   11.443719  11.144585   9.070270   6.627653   7.584123
    31  H   10.835041  10.017343   7.689951   5.238841   7.857956
    32  H    8.620645   7.589029   5.217580   2.799766   6.440438
                   26         27         28         29         30
    26  H    0.000000
    27  H    5.217580   0.000000
    28  H    7.689951   2.487999   0.000000
    29  H    9.070270   4.333513   2.467021   0.000000
    30  H    9.785493   6.068718   4.948849   2.700642   0.000000
    31  H    9.652317   7.192980   6.815016   4.948849   2.467021
    32  H    7.784521   6.683598   7.192980   6.068718   4.333513
                   31         32
    31  H    0.000000
    32  H    2.487999   0.000000
 Framework group  C2V[C2(CC),SGV(C18H12)]
 Deg. of freedom    31
                         Standard orientation:                         
 ---------------------------------------------------------------------
 Center     Atomic      Atomic             Coordinates (Angstroms)
 Number     Number       Type             X           Y           Z
 ---------------------------------------------------------------------
      1          6           0        0.000000    0.708017   -5.040526
      2          6           0       -0.000000   -0.708017   -5.040526
      3          6           0        0.000000   -1.402274   -3.846410
      4          6           0        0.000000   -0.719358   -2.601102
      5          6           0        0.000000   -1.422375   -1.359394
      6          6           0        0.000000   -0.725718   -0.175056
      7          6           0        0.000000    0.725718   -0.175056
      8          6           0        0.000000    1.422375   -1.359394
      9          6           0        0.000000    0.719358   -2.601102
     10          6           0        0.000000    1.402274   -3.846410
     11          6           0        0.000000    1.176095    1.230002
     12          6           0        0.000000    2.403494    1.867210
     13          6           0        0.000000    2.434664    3.291154
     14          6           0        0.000000    1.280384    4.061773
     15          6           0        0.000000   -0.000000    3.434691
     16          6           0       -0.000000   -1.280384    4.061773
     17          6           0       -0.000000   -2.434664    3.291154
     18          6           0       -0.000000   -2.403494    1.867210
     19          6           0       -0.000000   -1.176095    1.230002
     20          6           0        0.000000   -0.000000    2.027795
     21          1           0        0.000000    1.250985   -5.990306
     22          1           0       -0.000000   -1.250985   -5.990306
     23          1           0        0.000000   -2.496830   -3.843681
     24          1           0        0.000000   -2.516650   -1.370385
     25          1           0        0.000000    2.516650   -1.370385
     26          1           0        0.000000    2.496830   -3.843681
     27          1           0        0.000000    3.341799    1.305025
     28          1           0        0.000000    3.407508    3.792156
     29          1           0        0.000000    1.350321    5.153836
     30          1           0       -0.000000   -1.350321    5.153836
     31          1           0       -0.000000   -3.407508    3.792156
     32          1           0       -0.000000   -3.341799    1.305025
 ---------------------------------------------------------------------
 Rotational constants (GHZ):           0.8954881           0.2168124           0.1745508
   340 basis functions,   744 primitive gaussians,   360 cartesian basis functions
    66 alpha electrons       66 beta electrons
       nuclear repulsion energy      1322.7913567312 Hartrees.
 NAtoms=   32 NActive=   32 NUniq=   17 SFac= 3.54D+00 NAtFMM=   60 NAOKFM=F Big=F
 ExpMin= 1.22D-01 ExpMax= 6.67D+03 ExpMxC= 2.28D+02 IAcc=3 IRadAn=         5 AccDes= 0.00D+00
 Harris functional with IExCor=  205 and IRadAn=       5 diagonalized for initial guess.
 HarFok:  IExCor=  205 AccDes= 0.00D+00 IRadAn=         5 IDoV= 1 UseB2=F ITyADJ=14
 ICtDFT=  3500011 ScaDFX=  1.000000  1.000000  1.000000  1.000000
 FoFCou: FMM=F IPFlag=           0 FMFlag=      100000 FMFlg1=           0
         NFxFlg=           0 DoJE=T BraDBF=F KetDBF=T FulRan=T
         wScrn=  0.000000 ICntrl=       500 IOpCl=  0 I1Cent=   200000004 NGrid=           0
         NMat0=    1 NMatS0=      1 NMatT0=    0 NMatD0=    1 NMtDS0=    0 NMtDT0=    0
 Petite list used in FoFCou.
 Initial guess orbital symmetries:
       Occupied  (A1) (B2) (B2) (A1) (B2) (A1) (B2) (A1) (B2) (A1)
                 (A1) (B2) (A1) (A1) (B2) (A1) (A1) (B2) (A1) (B2)
                 (A1) (A1) (A1) (B2) (A1) (B2) (A1) (B2) (A1) (B2)
                 (A1) (B2) (A1) (B2) (A1) (A1) (B2) (A1) (A1) (B2)
                 (A1) (B2) (A1) (A1) (B2) (A1) (B2) (B2) (B2) (B1)
                 (A1) (B2) (B1) (A1) (B2) (A1) (B2) (B1) (A1) (A2)
                 (A2) (B1) (B1) (A2) (B1) (A2)
       Virtual   (A2) (B1) (B1) (A2) (B1) (B1) (A2) (A2) (A1) (A1)
                 (B2) (B2) (A1) (A1) (A2) (B2) (B1) (B2) (A1) (A1)
                 (B2) (B2) (A1) (A1) (B2) (B2) (A1) (B2) (A1) (A1)
                 (B2) (B2) (A1) (A1) (B2) (A1) (B2) (A1) (A1) (B2)
                 (B2) (A1) (B2) (B1) (A1) (A1) (B1) (B2) (A1) (A2)
                 (B2) (B1) (A1) (B2) (B2) (A1) (A2) (A1) (B2) (A1)
                 (A1) (B2) (B1) (A1) (B2) (B2) (A2) (B1) (A1) (B2)
                 (B1) (A2) (A1) (B1) (B1) (A2) (B2) (B1) (A1) (A1)
                 (A1) (B2) (A2) (B2) (B2) (A1) (B2) (A2) (B2) (B1)
                 (A2) (A1) (A1) (B1) (A2) (B2) (A1) (B1) (A1) (B2)
                 (B1) (B2) (A2) (B2) (A1) (B1) (B2) (A1) (A1) (B1)
                 (B2) (B1) (A1) (A2) (B1) (B2) (A2) (A1) (B2) (A2)
                 (A1) (B2) (A2) (B1) (A1) (A2) (A1) (B2) (B1) (A2)
                 (B2) (B1) (A1) (B2) (A1) (B2) (B2) (A1) (A1) (B2)
                 (A1) (A1) (A1) (B1) (A2) (A1) (B2) (B2) (B1) (A2)
                 (A1) (B2) (B1) (B2) (A1) (A1) (B2) (B1) (A1) (A2)
                 (A1) (B1) (A2) (B2) (A1) (A2) (A1) (B2) (A1) (A1)
                 (B1) (B2) (B2) (A2) (B2) (A1) (B1) (B2) (A1) (A1)
                 (A2) (B1) (B2) (A2) (B1) (B2) (A1) (A2) (A2) (A1)
                 (B2) (B2) (B1) (A1) (A1) (B2) (B2) (B1) (A1) (B2)
                 (A2) (A1) (B1) (A1) (B2) (A2) (B1) (B2) (A1) (A1)
                 (B2) (A1) (A2) (B2) (B2) (B1) (A1) (B2) (B2) (A2)
                 (A1) (B1) (A1) (B2) (A1) (A2) (B2) (B1) (B2) (A1)
                 (B2) (A1) (A2) (B2) (A1) (A1) (A2) (B2) (B2) (B2)
                 (B1) (A2) (A1) (A2) (A1) (A1) (B2) (B2) (A1) (A1)
                 (A1) (B2) (B2) (B2) (B2) (B2) (A1) (A1) (B2) (A1)
                 (B2) (A1) (B2) (A1) (B2) (A1) (B2) (A1) (A1) (B2)
                 (B2) (A1) (B2) (B2)
 The electronic state of the initial guess is 1-A1.
 Integral accuracy reduced to 1.0D-05 until final iterations.
 Initial convergence to 1.0D-05 achieved.  Increase integral accuracy.
 SCF Done:  E(RHF) =  -764.449841814     A.U. after   16 cycles
            NFock= 16  Conv=0.89D-08     -V/T= 2.0013
 ExpMin= 1.22D-01 ExpMax= 6.67D+03 ExpMxC= 2.28D+02 IAcc=3 IRadAn=         5 AccDes= 0.00D+00
 HarFok:  IExCor=  205 AccDes= 0.00D+00 IRadAn=         5 IDoV=-2 UseB2=F ITyADJ=14
 ICtDFT= 12500011 ScaDFX=  1.000000  1.000000  1.000000  1.000000
 NROrb=    320 NOA=    46 NOB=    46 NVA=   274 NVB=   274

 **** Warning!!: The largest alpha MO coefficient is  0.18688164D+02

 Estimated scratch disk usage=  1087970400 words.
 Actual    scratch disk usage=   819925088 words.
 (rs|ai) integrals will be sorted in core.
 ANorm=    0.1417295418D+01
 E2 =    -0.2578197778D+01 EUMP2 =    -0.76702803959202D+03

 **********************************************************************

            Population analysis using the SCF Density.

 **********************************************************************

 Orbital symmetries:
       Occupied  (A1) (B2) (A1) (A1) (A1) (B2) (B2) (B2) (A1) (B2)
                 (A1) (B2) (A1) (A1) (B2) (A1) (B2) (A1) (B2) (A1)
                 (A1) (A1) (A1) (B2) (A1) (B2) (A1) (B2) (A1) (B2)
                 (A1) (B2) (A1) (B2) (A1) (A1) (B2) (B2) (A1) (A1)
                 (B2) (A1) (B2) (A1) (A1) (B2) (A1) (B2) (A1) (B2)
                 (B1) (B2) (B1) (A1) (B2) (A1) (B2) (A1) (B1) (A2)
                 (A2) (B1) (B1) (A2) (B1) (A2)
       Virtual   (A2) (B1) (B1) (A2) (B1) (A1) (B2) (A1) (A1) (B2)
                 (B1) (A1) (B2) (A1) (A2) (B2) (B2) (A1) (B2) (A2)
                 (B2) (A1) (A1) (A2) (B1) (A1) (B2) (B2) (A1) (B2)
                 (A1) (B2) (A1) (A1) (A1) (B2) (A1) (B2) (A1) (B2)
                 (A1) (B2) (B1) (A1) (B1) (B2) (A1) (B2) (A2) (A1)
                 (B1) (B2) (A1) (A2) (B2) (B2) (A1) (A1) (B1) (B2)
                 (A1) (B2) (A2) (A1) (A1) (B1) (B2) (B2) (A1) (A2)
                 (B1) (B1) (A1) (B2) (B1) (A2) (B1) (A1) (B2) (A1)
                 (A2) (B2) (A1) (B2) (A2) (B2) (A1) (A1) (B1) (A2)
                 (A1) (B2) (B2) (A2) (B1) (A1) (B1) (B2) (B1) (B2)
                 (A1) (B2) (A2) (A1) (B2) (A1) (B2) (B1) (B2) (A1)
                 (B1) (A1) (B2) (B2) (A1) (B1) (B1) (A2) (A2) (A2)
                 (A1) (B2) (A1) (A2) (B1) (A1) (B2) (B2) (A2) (B1)
                 (A2) (A1) (B2) (B1) (A1) (B2) (B2) (A1) (A1) (B2)
                 (A1) (A1) (A1) (B1) (B2) (A2) (B2) (A1) (B1) (A1)
                 (A2) (B2) (B2) (B1) (B1) (A1) (B2) (A1) (A2) (A2)
                 (A1) (B1) (A1) (A1) (B2) (A2) (A1) (B2) (B1) (A1)
                 (B2) (A1) (B2) (A2) (B1) (B2) (B1) (A1) (B2) (A2)
                 (A1) (A2) (A2) (A1) (B2) (B1) (A1) (B2) (B2) (A2)
                 (B2) (B1) (B2) (A1) (B2) (A1) (A1) (A1) (B1) (B2)
                 (A1) (A2) (B1) (A1) (B1) (A2) (B2) (B2) (A1) (B2)
                 (A1) (B2) (A2) (A1) (A1) (B1) (B2) (B2) (A1) (B2)
                 (A2) (B1) (A1) (B2) (B2) (A2) (A1) (B1) (B2) (A1)
                 (B2) (A1) (A2) (A1) (B2) (A2) (A1) (B2) (B2) (B2)
                 (A2) (B1) (A2) (A1) (A1) (A1) (B2) (B2) (A1) (A1)
                 (A1) (B2) (B2) (B2) (B2) (A1) (B2) (A1) (B2) (A1)
                 (A1) (B2) (B2) (A1) (B2) (B2) (A1) (A1) (A1) (B2)
                 (B2) (A1) (B2) (B2)
 The electronic state is 1-A1.
 Alpha  occ. eigenvalues --  -11.25280 -11.25280 -11.25212 -11.25198 -11.25146
 Alpha  occ. eigenvalues --  -11.25129 -11.25104 -11.25078 -11.25046 -11.24959
 Alpha  occ. eigenvalues --  -11.24949 -11.24940 -11.24937 -11.24770 -11.24767
 Alpha  occ. eigenvalues --  -11.24475 -11.24446 -11.24349 -11.24276 -11.23402
 Alpha  occ. eigenvalues --   -1.20862  -1.16973  -1.12436  -1.11347  -1.06601
 Alpha  occ. eigenvalues --   -1.05434  -1.01485  -1.00495  -0.98506  -0.96505
 Alpha  occ. eigenvalues --   -0.88243  -0.87198  -0.83377  -0.81955  -0.80875
 Alpha  occ. eigenvalues --   -0.77730  -0.72917  -0.70436  -0.69716  -0.68683
 Alpha  occ. eigenvalues --   -0.65411  -0.64821  -0.62310  -0.62219  -0.60175
 Alpha  occ. eigenvalues --   -0.59101  -0.58246  -0.58154  -0.56882  -0.56855
 Alpha  occ. eigenvalues --   -0.56250  -0.53370  -0.52286  -0.51843  -0.49895
 Alpha  occ. eigenvalues --   -0.48737  -0.47742  -0.46735  -0.46169  -0.45545
 Alpha  occ. eigenvalues --   -0.39048  -0.38423  -0.32320  -0.32135  -0.29240
 Alpha  occ. eigenvalues --   -0.26283
 Alpha virt. eigenvalues --    0.05047   0.07528   0.11964   0.14465   0.16509
 Alpha virt. eigenvalues --    0.18156   0.18448   0.18788   0.20362   0.20494
 Alpha virt. eigenvalues --    0.21592   0.22613   0.22838   0.24568   0.24609
 Alpha virt. eigenvalues --    0.25242   0.27025   0.29154   0.31023   0.32189
 Alpha virt. eigenvalues --    0.35840   0.38927   0.39802   0.40459   0.41392
 Alpha virt. eigenvalues --    0.41658   0.42001   0.43871   0.44392   0.45754
 Alpha virt. eigenvalues --    0.45863   0.48089   0.48397   0.50235   0.52524
 Alpha virt. eigenvalues --    0.53739   0.56263   0.57014   0.58787   0.62985
 Alpha virt. eigenvalues --    0.64364   0.65153   0.65813   0.66505   0.67401
 Alpha virt. eigenvalues --    0.67822   0.68279   0.68655   0.68719   0.69002
 Alpha virt. eigenvalues --    0.69645   0.69801   0.70962   0.71068   0.71271
 Alpha virt. eigenvalues --    0.72281   0.72520   0.73169   0.73412   0.73906
 Alpha virt. eigenvalues --    0.74068   0.74399   0.74583   0.75554   0.75739
 Alpha virt. eigenvalues --    0.76077   0.76167   0.76649   0.78298   0.79107
 Alpha virt. eigenvalues --    0.79121   0.80358   0.80988   0.82522   0.83934
 Alpha virt. eigenvalues --    0.84106   0.85575   0.85754   0.86508   0.87080
 Alpha virt. eigenvalues --    0.87664   0.88180   0.89584   0.89809   0.91966
 Alpha virt. eigenvalues --    0.92044   0.92348   0.93618   0.93866   0.95289
 Alpha virt. eigenvalues --    0.96365   0.97628   0.98566   0.99289   0.99565
 Alpha virt. eigenvalues --    1.03105   1.05265   1.07398   1.09059   1.09996
 Alpha virt. eigenvalues --    1.11001   1.11039   1.12129   1.12374   1.12456
 Alpha virt. eigenvalues --    1.13160   1.13665   1.14296   1.15817   1.16140
 Alpha virt. eigenvalues --    1.16628   1.17545   1.18319   1.19213   1.19510
 Alpha virt. eigenvalues --    1.19960   1.20335   1.20688   1.21385   1.23220
 Alpha virt. eigenvalues --    1.24080   1.24961   1.26149   1.26347   1.26939
 Alpha virt. eigenvalues --    1.27484   1.27631   1.29614   1.30217   1.30987
 Alpha virt. eigenvalues --    1.31801   1.31830   1.33829   1.34688   1.35326
 Alpha virt. eigenvalues --    1.36580   1.38866   1.40452   1.47322   1.47903
 Alpha virt. eigenvalues --    1.52054   1.54225   1.56368   1.59455   1.59590
 Alpha virt. eigenvalues --    1.59608   1.60986   1.64056   1.64248   1.65310
 Alpha virt. eigenvalues --    1.65404   1.65471   1.67816   1.68686   1.70191
 Alpha virt. eigenvalues --    1.70819   1.73105   1.73718   1.74051   1.74740
 Alpha virt. eigenvalues --    1.75591   1.76590   1.78444   1.78854   1.79975
 Alpha virt. eigenvalues --    1.80332   1.83631   1.83849   1.84013   1.85143
 Alpha virt. eigenvalues --    1.85315   1.86789   1.87306   1.87421   1.89818
 Alpha virt. eigenvalues --    1.90008   1.91240   1.91536   1.91904   1.92046
 Alpha virt. eigenvalues --    1.92786   1.94317   1.97257   1.97443   1.97938
 Alpha virt. eigenvalues --    1.98235   1.99030   1.99389   2.00072   2.01331
 Alpha virt. eigenvalues --    2.02052   2.03260   2.03389   2.03597   2.04537
 Alpha virt. eigenvalues --    2.05124   2.06496   2.07650   2.09463   2.09551
 Alpha virt. eigenvalues --    2.10463   2.10784   2.12022   2.12993   2.13554
 Alpha virt. eigenvalues --    2.13782   2.13856   2.15691   2.16167   2.17447
 Alpha virt. eigenvalues --    2.18386   2.19227   2.20189   2.20378   2.23660
 Alpha virt. eigenvalues --    2.24434   2.25637   2.27201   2.29582   2.29942
 Alpha virt. eigenvalues --    2.30385   2.31495   2.34046   2.34516   2.36378
 Alpha virt. eigenvalues --    2.38044   2.38194   2.38234   2.40969   2.43163
 Alpha virt. eigenvalues --    2.44705   2.45041   2.45870   2.51845   2.52061
 Alpha virt. eigenvalues --    2.55182   2.56561   2.57208   2.62553   2.64016
 Alpha virt. eigenvalues --    2.64501   2.64521   2.67256   2.67429   2.70658
 Alpha virt. eigenvalues --    2.71762   2.72965   2.76939   2.78315   2.80286
 Alpha virt. eigenvalues --    2.83341   2.86686   2.90215   2.92494   2.94427
 Alpha virt. eigenvalues --    2.97533   2.98138   2.98688   3.03135   3.05315
 Alpha virt. eigenvalues --    3.05979   3.08789   3.10976   3.12566   3.15194
 Alpha virt. eigenvalues --    3.17817   3.21410   3.26510   3.34124   3.35212
 Alpha virt. eigenvalues --    3.65980   3.74020   3.87444   3.94244
          Condensed to atoms (all electrons):
 Mulliken charges:
               1
     1  C   -0.014747
     2  C   -0.014747
     3  C    0.019243
     4  C   -0.085299
     5  C    0.046219
     6  C   -0.044146
     7  C   -0.044146
     8  C    0.046219
     9  C   -0.085299
    10  C    0.019243
    11  C    0.004055
    12  C   -0.045599
    13  C    0.012078
    14  C    0.010506
    15  C   -0.095008
    16  C    0.010506
    17  C    0.012078
    18  C   -0.045599
    19  C    0.004055
    20  C    0.036728
    21  H    0.029819
    22  H    0.029819
    23  H    0.016590
    24  H    0.010413
    25  H    0.010413
    26  H    0.016590
    27  H    0.018369
    28  H    0.032130
    29  H    0.019507
    30  H    0.019507
    31  H    0.032130
    32  H    0.018369
 Sum of Mulliken charges =  -0.00000
 Mulliken charges with hydrogens summed into heavy atoms:
               1
     1  C    0.015072
     2  C    0.015072
     3  C    0.035833
     4  C   -0.085299
     5  C    0.056632
     6  C   -0.044146
     7  C   -0.044146
     8  C    0.056632
     9  C   -0.085299
    10  C    0.035833
    11  C    0.004055
    12  C   -0.027230
    13  C    0.044208
    14  C    0.030013
    15  C   -0.095008
    16  C    0.030013
    17  C    0.044208
    18  C   -0.027230
    19  C    0.004055
    20  C    0.036728
 Electronic spatial extent (au):  <R**2>=           5884.9799
 Charge=              0.0000 electrons
 Dipole moment (field-independent basis, Debye):
    X=             -0.0000    Y=             -0.0000    Z=              0.2301  Tot=              0.2301
 Unable to Open any file for archive entry.
 1\1\GINC-GPU\SP\RMP2-FC\CC-pVDZ\C20H12\XUHJ\15-Aug-2025\0\\#T MP2/cc-p
 VDZ symm=veryloose\\c1ccc2cc3c(cc2c1)-c1cccc2cccc-3c12\\0,1\C,0,0.,0.7
 08017,-5.040526\C,0,0.,-0.708017,-5.040526\C,0,0.,-1.402274,-3.84641\C
 ,0,0.,-0.719358,-2.601102\C,0,0.,-1.422375,-1.359394\C,0,0.,-0.725718,
 -0.175056\C,0,0.,0.725718,-0.175056\C,0,0.,1.422375,-1.359394\C,0,0.,0
 .719358,-2.601102\C,0,0.,1.402274,-3.84641\C,0,0.,1.176095,1.230002\C,
 0,0.,2.403494,1.86721\C,0,0.,2.434664,3.291154\C,0,0.,1.280384,4.06177
 3\C,0,0.,0.,3.434691\C,0,0.,-1.280384,4.061773\C,0,0.,-2.434664,3.2911
 54\C,0,0.,-2.403494,1.86721\C,0,0.,-1.176095,1.230002\C,0,0.,0.,2.0277
 95\H,0,0.,1.250985,-5.990306\H,0,0.,-1.250985,-5.990306\H,0,0.,-2.4968
 3,-3.843681\H,0,0.,-2.51665,-1.370385\H,0,0.,2.51665,-1.370385\H,0,0.,
 2.49683,-3.843681\H,0,0.,3.341799,1.305025\H,0,0.,3.407508,3.792156\H,
 0,0.,1.350321,5.153836\H,0,0.,-1.350321,5.153836\H,0,0.,-3.407508,3.79
 2156\H,0,0.,-3.341799,1.305025\\Version=ES64L-G16RevC.01\State=1-A1\HF
 =-764.4498418\MP2=-767.0280396\RMSD=8.869e-09\PG=C02V [C2(C1C1),SGV(C1
 8H12)]\\@
 The archive entry for this job was punched.


 SILVERMAN'S PARADOX - IF MURPHY'S LAW CAN GO WRONG, IT WILL.
 Job cpu time:       0 days  0 hours 23 minutes  1.9 seconds.
 Elapsed time:       0 days  0 hours  0 minutes 43.7 seconds.
 File lengths (MBytes):  RWF=   6325 Int=      0 D2E=      0 Chk=      9 Scr=      1
 Normal termination of Gaussian 16 at Fri Aug 15 11:45:04 2025.
