 Entering Gaussian System, Link 0=g16
 Initial command:
 /opt/g16/l1.exe "/tmp/Gau-2516765.inp" -scrdir="/tmp/"
 Entering Link 1 = /opt/g16/l1.exe PID=   2516767.
  
 Copyright (c) 1988-2019, Gaussian, Inc.  All Rights Reserved.
  
 This is part of the Gaussian(R) 16 program.  It is based on
 the Gaussian(R) 09 system (copyright 2009, Gaussian, Inc.),
 the Gaussian(R) 03 system (copyright 2003, Gaussian, Inc.),
 the Gaussian(R) 98 system (copyright 1998, Gaussian, Inc.),
 the Gaussian(R) 94 system (copyright 1995, Gaussian, Inc.),
 the Gaussian 92(TM) system (copyright 1992, Gaussian, Inc.),
 the Gaussian 90(TM) system (copyright 1990, Gaussian, Inc.),
 the Gaussian 88(TM) system (copyright 1988, Gaussian, Inc.),
 the Gaussian 86(TM) system (copyright 1986, Carnegie Mellon
 University), and the Gaussian 82(TM) system (copyright 1983,
 Carnegie Mellon University). Gaussian is a federally registered
 trademark of Gaussian, Inc.
  
 This software contains proprietary and confidential information,
 including trade secrets, belonging to Gaussian, Inc.
  
 This software is provided under written license and may be
 used, copied, transmitted, or stored only in accord with that
 written license.
  
 The following legend is applicable only to US Government
 contracts under FAR:
  
                    RESTRICTED RIGHTS LEGEND
  
 Use, reproduction and disclosure by the US Government is
 subject to restrictions as set forth in subparagraphs (a)
 and (c) of the Commercial Computer Software - Restricted
 Rights clause in FAR 52.227-19.
  
 Gaussian, Inc.
 340 Quinnipiac St., Bldg. 40, Wallingford CT 06492
  
  
 ---------------------------------------------------------------
 Warning -- This program may not be used in any manner that
 competes with the business of Gaussian, Inc. or will provide
 assistance to any competitor of Gaussian, Inc.  The licensee
 of this program is prohibited from giving any competitor of
 Gaussian, Inc. access to this program.  By using this program,
 the user acknowledges that Gaussian, Inc. is engaged in the
 business of creating and licensing software in the field of
 computational chemistry and represents and warrants to the
 licensee that it is not a competitor of Gaussian, Inc. and that
 it will not use this program in any manner prohibited above.
 ---------------------------------------------------------------
  

 Cite this work as:
 Gaussian 16, Revision C.01,
 M. J. Frisch, G. W. Trucks, H. B. Schlegel, G. E. Scuseria, 
 M. A. Robb, J. R. Cheeseman, G. Scalmani, V. Barone, 
 G. A. Petersson, H. Nakatsuji, X. Li, M. Caricato, A. V. Marenich, 
 J. Bloino, B. G. Janesko, R. Gomperts, B. Mennucci, H. P. Hratchian, 
 J. V. Ortiz, A. F. Izmaylov, J. L. Sonnenberg, D. Williams-Young, 
 F. Ding, F. Lipparini, F. Egidi, J. Goings, B. Peng, A. Petrone, 
 T. Henderson, D. Ranasinghe, V. G. Zakrzewski, J. Gao, N. Rega, 
 G. Zheng, W. Liang, M. Hada, M. Ehara, K. Toyota, R. Fukuda, 
 J. Hasegawa, M. Ishida, T. Nakajima, Y. Honda, O. Kitao, H. Nakai, 
 T. Vreven, K. Throssell, J. A. Montgomery, Jr., J. E. Peralta, 
 F. Ogliaro, M. J. Bearpark, J. J. Heyd, E. N. Brothers, K. N. Kudin, 
 V. N. Staroverov, T. A. Keith, R. Kobayashi, J. Normand, 
 K. Raghavachari, A. P. Rendell, J. C. Burant, S. S. Iyengar, 
 J. Tomasi, M. Cossi, J. M. Millam, M. Klene, C. Adamo, R. Cammi, 
 J. W. Ochterski, R. L. Martin, K. Morokuma, O. Farkas, 
 J. B. Foresman, and D. J. Fox, Gaussian, Inc., Wallingford CT, 2019.
 
 ******************************************
 Gaussian 16:  ES64L-G16RevC.01  3-Jul-2019
                11-Oct-2024 
 ******************************************
 %nprocshared=8
 Will use up to    8 processors via shared memory.
 %mem=10400MB
 -----------------------------
 #T MP2/cc-pVDZ symm=veryloose
 -----------------------------
 ------------------------------------------
 c1ccc2cc3c(ccc4cc5c(ccc6ccccc65)cc43)cc2c1
 ------------------------------------------
 Symbolic Z-matrix:
 Charge =  0 Multiplicity = 1
 C                    -3.88457   5.66561   0. 
 C                    -4.68867   4.49155   0. 
 C                    -4.10144   3.24666   0. 
 C                    -2.6821    3.10698   0. 
 C                    -2.05192   1.84444   0. 
 C                    -0.66667   1.70062   0. 
 C                     0.14301   2.89558   0. 
 C                     1.58201   2.7767    0. 
 C                     2.19339   1.5645    0. 
 C                     1.43319   0.33708   0. 
 C                     2.08333  -0.90259   0. 
 C                     1.38824  -2.12063   0. 
 C                    -0.04373  -2.06453   0. 
 C                    -0.80039  -3.28704   0. 
 C                    -0.18112  -4.4995    0. 
 C                     1.25383  -4.60574   0. 
 C                     1.88469  -5.87189   0. 
 C                     3.26483  -5.98328   0. 
 C                     4.05543  -4.81798   0. 
 C                     3.45732  -3.56681   0. 
 C                     2.05059  -3.42128   0. 
 C                    -0.69393  -0.81833   0. 
 C                     0.        0.39307   0. 
 C                    -0.46938   4.1478    0. 
 C                    -1.8702    4.29424   0. 
 C                    -2.51173   5.56798   0. 
 H                    -4.36507   6.64848   0. 
 H                    -5.77873   4.5842    0. 
 H                    -4.71759   2.34199   0. 
 H                    -2.69632   0.96286   0. 
 H                     2.17319   3.6974    0. 
 H                     3.28536   1.49327   0. 
 H                     3.17503  -0.8959    0. 
 H                    -1.89266  -3.22033   0. 
 H                    -0.7681   -5.42297   0. 
 H                     1.258    -6.76918   0. 
 H                     3.73905  -6.96905   0. 
 H                     5.1465   -4.89746   0. 
 H                     4.09556  -2.68137   0. 
 H                    -1.78579  -0.82505   0. 
 H                     0.15746   5.04527   0. 
 H                    -1.88993   6.46863   0. 
 
                    Distance matrix (angstroms):
                    1          2          3          4          5
     1  C    0.000000
     2  C    1.423021   0.000000
     3  C    2.428655   1.376446   0.000000
     4  C    2.827109   2.437901   1.426189   0.000000
     5  C    4.237924   3.736267   2.483296   1.411078   0.000000
     6  C    5.106473   4.895487   3.766677   2.457603   1.392690
     7  C    4.888193   5.088439   4.258936   2.833007   2.433636
     8  C    6.182985   6.500932   5.702840   4.276883   3.751601
     9  C    7.332171   7.478663   6.515713   5.113677   4.254528
    10  C    7.528068   7.398433   6.252818   4.960642   3.797117
    11  C    8.874520   8.657757   7.447656   6.227838   4.964515
    12  C    9.403619   8.980521   7.677518   6.625370   5.249419
    13  C    8.631748   8.034776   6.683835   5.805638   4.394632
    14  C    9.469008   8.696275   7.320253   6.665153   5.281890
    15  C   10.818734  10.057683   8.681694   8.007082   6.614029
    16  C   11.484938  10.866186   9.504683   8.658957   7.247945
    17  C   12.899543  12.272323  10.907866  10.073507   8.662476
    18  C   13.667872  13.152201  11.809054  10.862728   9.462612
    19  C   13.151015  12.772102  11.470517  10.401884   9.038108
    20  C   11.795806  11.458378  10.176355   9.068186   7.722261
    21  C   10.853470  10.393778   9.072425   8.063285   6.675206
    22  C    7.226460   6.644760   5.304268   4.400100   2.989058
    23  C    6.549012   6.227453   4.996472   3.815619   2.513328
    24  C    3.737283   4.233269   3.742175   2.445292   2.794618
    25  C    2.436874   2.825369   2.464923   1.438327   2.456533
    26  C    1.376306   2.428530   2.813485   2.466896   3.751829
    27  H    1.094029   2.181064   3.412018   3.921045   5.331929
    28  H    2.181115   1.093987   2.145304   3.430929   4.625521
    29  H    3.426422   2.149755   1.094563   2.174491   2.711714
    30  H    4.850547   4.052299   2.681434   2.144162   1.091985
    31  H    6.369488   6.907667   6.290799   4.891065   4.613570
    32  H    8.295561   8.519087   7.592042   6.181800   5.348814
    33  H    9.638018   9.532178   8.373037   7.094295   5.901729
    34  H    9.106459   8.203094   6.833783   6.376360   5.067265
    35  H   11.518202  10.661546   9.288355   8.742044   7.379929
    36  H   13.456223  12.734475  11.359597  10.633097   9.227667
    37  H   14.756494  14.225742  12.877647  11.948113  10.545745
    38  H   13.897435  13.597209  12.322782  11.196339   9.862573
    39  H   11.547926  11.340789  10.115940   8.913005   7.633765
    40  H    6.821553   6.057473   4.684126   4.032892   2.682721
    41  H    4.089354   4.877658   4.623112   3.438035   3.889299
    42  H    2.150219   3.426630   3.907923   3.453731   4.627028
                    6          7          8          9         10
     6  C    0.000000
     7  C    1.443441   0.000000
     8  C    2.492892   1.443904   0.000000
     9  C    2.863302   2.444557   1.357648   0.000000
    10  C    2.503727   2.865396   2.444148   1.443766   0.000000
    11  C    3.786712   4.265087   3.713285   2.469548   1.399811
    12  C    4.338728   5.168460   4.901159   3.772066   2.458125
    13  C    3.816325   4.963620   5.106902   4.263163   2.819401
    14  C    4.989447   6.254183   6.514962   5.700896   4.257132
    15  C    6.219097   7.402179   7.486763   6.512328   5.098875
    16  C    6.592301   7.583122   7.389728   6.241369   4.946077
    17  C    7.990759   8.938789   8.653879   7.442795   6.225365
    18  C    8.631282   9.411698   8.920155   7.623455   6.580422
    19  C    8.049240   8.649047   7.987294   6.648549   5.783663
    20  C    6.689778   7.262729   6.614902   5.284687   4.397444
    21  C    5.798049   6.598611   6.215669   4.987832   3.808741
    22  C    2.519094   3.807047   4.254892   3.743597   2.420666
    23  C    1.467692   2.506592   2.860842   2.486609   1.434286
    24  C    2.455122   1.393937   2.467409   3.709956   4.259263
    25  C    2.859259   2.451374   3.771029   4.895328   5.154753
    26  C    4.284946   3.766875   4.954792   6.177867   6.551696
    27  H    6.177334   5.865742   7.096363   8.298203   8.570501
    28  H    5.869257   6.157787   7.579411   8.524862   8.369576
    29  H    4.101380   4.892020   6.314580   6.954581   6.469298
    30  H    2.159572   3.434701   4.646943   4.926587   4.176657
    31  H    3.471597   2.182792   1.094164   2.132992   3.440831
    32  H    3.957466   3.441056   2.132744   1.094286   2.183409
    33  H    4.636870   4.854740   4.003210   2.648999   2.134068
    34  H    5.071360   6.445792   6.930914   6.292089   4.869953
    35  H    7.124306   8.368297   8.529803   7.589152   6.166354
    36  H    8.685719   9.728862   9.551371   8.386012   7.108420
    37  H    9.724886  10.499639   9.981601   8.672401   7.661365
    38  H    8.793609   9.261018   8.461579   7.104775   6.417874
    39  H    6.471526   6.835575   6.009031   4.652492   4.024831
    40  H    2.762504   4.190869   4.930992   4.641541   3.422343
    41  H    3.444689   2.149735   2.678760   4.032462   4.877960
    42  H    4.922428   4.110897   5.068006   6.381531   6.974164
                   11         12         13         14         15
    11  C    0.000000
    12  C    1.402416   0.000000
    13  C    2.423730   1.433065   0.000000
    14  C    3.741850   2.480042   1.437735   0.000000
    15  C    4.250349   2.849893   2.438846   1.361453   0.000000
    16  C    3.794916   2.488742   2.853319   2.441063   1.438875
    17  C    4.973265   3.783965   4.267880   3.727075   2.480123
    18  C    5.216262   4.294381   5.128670   4.878092   3.751827
    19  C    4.383995   3.793361   4.938076   5.091441   4.248503
    20  C    2.997655   2.524393   3.809754   4.266896   3.756082
    21  C    2.518906   1.459594   2.495390   2.854142   2.478523
    22  C    2.778534   2.455888   1.405615   2.471003   3.716713
    23  C    2.453366   2.871567   2.457986   3.766145   4.895921
    24  C    5.658864   6.537884   6.226887   7.442202   8.652098
    25  C    6.529734   7.194995   6.615880   7.656388   8.954485
    26  C    7.936176   8.621166   8.021607   9.018874  10.333726
    27  H    9.929775  10.487980   9.725757  10.555633  11.907256
    28  H    9.587326   9.814283   8.780421   9.313447  10.669904
    29  H    7.535240   7.562813   6.423581   6.857876   8.208872
    30  H    5.130784   5.117764   4.025083   4.653621   6.013617
    31  H    4.600868   5.870743   6.173695   7.591087   8.528301
    32  H    2.680487   4.081583   4.872443   6.288457   6.923128
    33  H    1.091722   2.166239   3.424338   4.639130   4.924394
    34  H    4.602212   3.460288   2.180460   1.094300   2.136736
    35  H    5.344576   3.944014   3.435675   2.136173   1.094235
    36  H    5.924357   4.650371   4.881417   4.045026   2.687469
    37  H    6.288346   5.388270   6.193846   5.844970   4.633181
    38  H    5.034083   4.672827   5.913034   6.161083   5.342458
    39  H    2.685727   2.764782   4.184997   4.933271   4.647101
    40  H    3.869899   3.428263   2.138008   2.651866   4.009554
    41  H    6.251880   7.270825   7.112638   8.387182   9.550768
    42  H    8.373866   9.193569   8.730587   9.816320  11.100442
                   16         17         18         19         20
    16  C    0.000000
    17  C    1.414607   0.000000
    18  C    2.437574   1.384633   0.000000
    19  C    2.809629   2.413059   1.408186   0.000000
    20  C    2.436135   2.790438   2.424125   1.386773   0.000000
    21  C    1.427504   2.456212   2.835177   2.443384   1.414239
    22  C    4.258898   5.673418   6.507573   6.209149   4.978656
    23  C    5.153659   6.542305   7.163592   6.603145   5.256783
    24  C    8.921539  10.292507  10.797368  10.042857   8.656454
    25  C    9.432347  10.837403  11.488953  10.869477   9.496242
    26  C   10.848228  12.255574  12.915124  12.288031  10.912106
    27  H   12.578925  13.993532  14.757260  14.226182  12.866309
    28  H   11.572030  12.963709  13.908909  13.605572  12.318428
    29  H    9.161268  10.538402  11.533834  11.323915  10.086783
    30  H    6.827369   8.227964   9.153374   8.888429   7.641023
    31  H    8.353882   9.573634   9.742038   8.720918   7.376839
    32  H    6.428452   7.497157   7.476579   6.358049   5.063001
    33  H    4.177790   5.140567   5.088177   4.019674   2.685789
    34  H    3.437984   4.615095   5.850951   6.158913   5.361186
    35  H    2.180842   2.690508   4.071675   4.861327   4.615142
    36  H    2.163441   1.094474   2.155232   3.410694   3.884865
    37  H    3.429508   2.154623   1.093896   2.174216   3.413879
    38  H    3.903584   3.404246   2.172479   1.093958   2.150334
    39  H    3.432000   3.881666   3.404809   2.136980   1.091490
    40  H    4.851071   6.240430   7.219153   7.075543   5.916714
    41  H    9.713082  11.052944  11.457955  10.605552   9.222637
    42  H   11.511943  12.904884  13.476708  12.756750  11.371154
                   21         22         23         24         25
    21  C    0.000000
    22  C    3.782557   0.000000
    23  C    4.330616   1.396078   0.000000
    24  C    7.977546   4.971203   3.783950   0.000000
    25  C    8.654588   5.246141   4.326286   1.408452   0.000000
    26  C   10.080758   6.639986   5.752259   2.487593   1.426178
    27  H   11.939880   8.320486   7.627836   4.629229   3.430277
    28  H   11.197591   7.419068   7.138576   5.327250   3.919268
    29  H    8.889525   5.116398   5.104308   4.616084   3.452378
    30  H    6.461724   2.679966   2.755865   3.886268   3.432282
    31  H    7.119739   5.349038   3.954915   2.680683   4.087205
    32  H    5.067293   4.601978   3.464680   4.598325   5.867300
    33  H    2.764404   3.869734   3.426699   6.222589   7.238223
    34  H    3.948364   2.684497   4.079068   7.504329   7.514599
    35  H    3.457135   4.605234   5.866542   9.575427   9.779506
    36  H    3.440435   6.262791   7.271888  11.052789  11.497164
    37  H    3.929059   7.581725   8.257195  11.886761  12.582736
    38  H    3.429830   7.123893   7.380798  10.646821  11.563797
    39  H    2.174709   5.139074   5.121113   8.214391   9.178747
    40  H    4.632306   1.091887   2.161686   5.144140   5.119988
    41  H    8.675623   5.925086   4.654859   1.094705   2.162275
    42  H   10.646034   7.384457   6.362720   2.721067   2.174478
                   26         27         28         29         30
    26  C    0.000000
    27  H    2.145302   0.000000
    28  H    3.411901   2.501929   0.000000
    29  H    3.908046   4.320889   2.480629   0.000000
    30  H    4.608819   5.925449   4.755562   2.446947   0.000000
    31  H    5.044562   7.173403   8.001216   7.022824   5.584788
    32  H    7.085870   9.225247   9.576613   8.047828   6.005147
    33  H    8.609357  10.666334  10.497680   8.530969   6.158549
    34  H    8.810085  10.173793   8.718499   6.238561   4.259685
    35  H   11.128397  12.595949  11.191508   8.711663   6.670594
    36  H   12.900245  14.548273  13.357197  10.895919   8.684526
    37  H   14.008901  15.846564  14.968821  12.578163  10.214160
    38  H   12.968191  14.959229  14.465908  12.235601   9.790461
    39  H   10.569206  12.594770  12.259285  10.144250   7.707790
    40  H    6.434118   7.906092   6.723360   4.315741   2.006412
    41  H    2.719890   4.798281   5.954061   5.574388   4.980972
    42  H    1.094443   2.481665   4.321321   5.002481   5.564508
                   31         32         33         34         35
    31  H    0.000000
    32  H    2.468827   0.000000
    33  H    4.701284   2.391713   0.000000
    34  H    8.024092   7.002127   5.575338   0.000000
    35  H    9.582920   8.016538   6.003554   2.473106   0.000000
    36  H   10.506512   8.507537   6.178220   4.745624   2.432561
    37  H   10.780769   8.474468   6.099282   6.765277   4.764950
    38  H    9.094624   6.656220   4.460850   7.236190   5.937899
    39  H    6.662147   4.252533   2.008801   6.012419   5.583150
    40  H    6.010503   5.575947   4.961329   2.397656   4.709196
    41  H    2.424860   4.732913   6.663574   8.516043  10.509074
    42  H    4.918197   7.178983   8.938124   9.688954  11.944395
                   36         37         38         39         40
    36  H    0.000000
    37  H    2.489088   0.000000
    38  H    4.315525   2.504473   0.000000
    39  H    4.976134   4.302472   2.452658   0.000000
    40  H    6.678118   8.262718   8.039972   6.167350   0.000000
    41  H   11.865592  12.536807  11.124225   8.672346   6.183597
    42  H   13.606943  14.569024  13.367845  10.933825   7.294424
                   41         42
    41  H    0.000000
    42  H    2.493539   0.000000
 Framework group  CS[SG(C26H16)]
 Deg. of freedom    81
                         Standard orientation:                         
 ---------------------------------------------------------------------
 Center     Atomic      Atomic             Coordinates (Angstroms)
 Number     Number       Type             X           Y           Z
 ---------------------------------------------------------------------
      1          6           0       -3.884571    5.665611    0.000000
      2          6           0       -4.688670    4.491552    0.000000
      3          6           0       -4.101436    3.246658    0.000000
      4          6           0       -2.682104    3.106975    0.000000
      5          6           0       -2.051916    1.844436    0.000000
      6          6           0       -0.666672    1.700615    0.000000
      7          6           0        0.143005    2.895581    0.000000
      8          6           0        1.582007    2.776697    0.000000
      9          6           0        2.193393    1.564503    0.000000
     10          6           0        1.433193    0.337084    0.000000
     11          6           0        2.083329   -0.902591    0.000000
     12          6           0        1.388237   -2.120630    0.000000
     13          6           0       -0.043729   -2.064525    0.000000
     14          6           0       -0.800392   -3.287040    0.000000
     15          6           0       -0.181119   -4.499498    0.000000
     16          6           0        1.253828   -4.605740    0.000000
     17          6           0        1.884688   -5.871887    0.000000
     18          6           0        3.264833   -5.983284    0.000000
     19          6           0        4.055430   -4.817975    0.000000
     20          6           0        3.457322   -3.566813    0.000000
     21          6           0        2.050591   -3.421284    0.000000
     22          6           0       -0.693927   -0.818332    0.000000
     23          6           0        0.000000    0.393072    0.000000
     24          6           0       -0.469381    4.147797    0.000000
     25          6           0       -1.870199    4.294239    0.000000
     26          6           0       -2.511732    5.567981    0.000000
     27          1           0       -4.365067    6.648476    0.000000
     28          1           0       -5.778726    4.584204    0.000000
     29          1           0       -4.717592    2.341992    0.000000
     30          1           0       -2.696319    0.962860    0.000000
     31          1           0        2.173194    3.697399    0.000000
     32          1           0        3.285358    1.493267    0.000000
     33          1           0        3.175030   -0.895900    0.000000
     34          1           0       -1.892656   -3.220326    0.000000
     35          1           0       -0.768104   -5.422969    0.000000
     36          1           0        1.257995   -6.769177    0.000000
     37          1           0        3.739045   -6.969048    0.000000
     38          1           0        5.146496   -4.897463    0.000000
     39          1           0        4.095558   -2.681372    0.000000
     40          1           0       -1.785793   -0.825053    0.000000
     41          1           0        0.157457    5.045267    0.000000
     42          1           0       -1.889927    6.468628    0.000000
 ---------------------------------------------------------------------
 Rotational constants (GHZ):           0.6910476           0.0902629           0.0798351
   444 basis functions,   970 primitive gaussians,   470 cartesian basis functions
    86 alpha electrons       86 beta electrons
       nuclear repulsion energy      1941.6787108715 Hartrees.
 NAtoms=   42 NActive=   42 NUniq=   42 SFac= 1.00D+00 NAtFMM=   60 NAOKFM=F Big=F
 ExpMin= 1.22D-01 ExpMax= 6.67D+03 ExpMxC= 2.28D+02 IAcc=3 IRadAn=         5 AccDes= 0.00D+00
 Harris functional with IExCor=  205 and IRadAn=       5 diagonalized for initial guess.
 HarFok:  IExCor=  205 AccDes= 0.00D+00 IRadAn=         5 IDoV= 1 UseB2=F ITyADJ=14
 ICtDFT=  3500011 ScaDFX=  1.000000  1.000000  1.000000  1.000000
 FoFCou: FMM=F IPFlag=           0 FMFlag=      100000 FMFlg1=           0
         NFxFlg=           0 DoJE=T BraDBF=F KetDBF=T FulRan=T
         wScrn=  0.000000 ICntrl=       500 IOpCl=  0 I1Cent=   200000004 NGrid=           0
         NMat0=    1 NMatS0=      1 NMatT0=    0 NMatD0=    1 NMtDS0=    0 NMtDT0=    0
 Petite list used in FoFCou.
 Initial guess orbital symmetries:
       Occupied  (A') (A') (A') (A') (A') (A') (A') (A') (A') (A')
                 (A') (A') (A') (A') (A') (A') (A') (A') (A') (A')
                 (A') (A') (A') (A') (A') (A') (A') (A') (A') (A')
                 (A') (A') (A') (A') (A') (A') (A') (A') (A') (A')
                 (A') (A') (A') (A') (A') (A') (A') (A') (A') (A')
                 (A') (A') (A') (A') (A') (A') (A') (A') (A') (A')
                 (A') (A') (A') (A') (A') (A") (A') (A") (A') (A')
                 (A") (A') (A') (A') (A") (A') (A') (A") (A") (A")
                 (A") (A") (A") (A") (A") (A")
       Virtual   (A") (A") (A") (A") (A") (A") (A") (A") (A") (A")
                 (A') (A') (A') (A') (A") (A') (A') (A') (A") (A')
                 (A') (A') (A') (A') (A') (A') (A') (A") (A') (A')
                 (A') (A') (A') (A') (A') (A') (A') (A') (A') (A')
                 (A') (A') (A') (A') (A') (A') (A') (A') (A') (A')
                 (A') (A') (A') (A') (A') (A") (A') (A") (A') (A")
                 (A') (A') (A') (A") (A') (A') (A') (A") (A') (A")
                 (A') (A') (A') (A') (A') (A") (A') (A') (A') (A')
                 (A') (A") (A') (A') (A') (A") (A') (A') (A") (A")
                 (A') (A") (A') (A') (A") (A") (A") (A") (A") (A')
                 (A') (A") (A') (A') (A') (A') (A') (A') (A") (A')
                 (A") (A") (A') (A') (A') (A") (A') (A') (A') (A")
                 (A') (A") (A") (A") (A") (A') (A") (A') (A") (A')
                 (A') (A') (A") (A') (A') (A") (A') (A') (A') (A")
                 (A') (A') (A") (A') (A") (A') (A') (A') (A') (A")
                 (A") (A") (A') (A") (A") (A') (A") (A") (A') (A')
                 (A") (A") (A') (A') (A") (A') (A") (A') (A') (A")
                 (A') (A") (A') (A') (A') (A') (A') (A') (A') (A')
                 (A') (A') (A') (A') (A") (A') (A") (A') (A') (A")
                 (A') (A') (A") (A") (A') (A') (A') (A") (A') (A')
                 (A") (A') (A') (A") (A') (A') (A') (A") (A') (A")
                 (A") (A') (A") (A') (A') (A") (A') (A') (A') (A')
                 (A') (A') (A') (A") (A') (A') (A') (A') (A') (A")
                 (A') (A") (A') (A') (A") (A') (A") (A") (A") (A")
                 (A') (A") (A') (A") (A') (A") (A') (A") (A') (A")
                 (A') (A') (A') (A') (A') (A") (A') (A") (A') (A')
                 (A') (A') (A") (A") (A') (A') (A') (A") (A') (A")
                 (A') (A') (A') (A") (A') (A') (A") (A') (A') (A")
                 (A') (A") (A') (A') (A') (A") (A') (A') (A') (A')
                 (A") (A') (A') (A") (A") (A') (A') (A") (A') (A')
                 (A') (A') (A') (A') (A") (A') (A") (A') (A') (A')
                 (A') (A') (A") (A") (A') (A') (A') (A') (A") (A')
                 (A") (A') (A') (A') (A') (A') (A') (A') (A') (A')
                 (A') (A') (A') (A') (A') (A') (A') (A') (A') (A')
                 (A') (A') (A') (A') (A') (A') (A') (A') (A') (A')
                 (A') (A') (A') (A') (A') (A') (A') (A')
 The electronic state of the initial guess is 1-A'.
 Integral accuracy reduced to 1.0D-05 until final iterations.
 Initial convergence to 1.0D-05 achieved.  Increase integral accuracy.
 SCF Done:  E(RHF) =  -994.027639869     A.U. after   16 cycles
            NFock= 16  Conv=0.96D-08     -V/T= 2.0012
 ExpMin= 1.22D-01 ExpMax= 6.67D+03 ExpMxC= 2.28D+02 IAcc=3 IRadAn=         5 AccDes= 0.00D+00
 HarFok:  IExCor=  205 AccDes= 0.00D+00 IRadAn=         5 IDoV=-2 UseB2=F ITyADJ=14
 ICtDFT= 12500011 ScaDFX=  1.000000  1.000000  1.000000  1.000000
 GSVD:  LWork=        -884 too small for GESVD, short by        3770 words or        3770 for optimal perf.
 NROrb=    418 NOA=    60 NOB=    60 NVA=   358 NVB=   358

 **** Warning!!: The largest alpha MO coefficient is  0.14810708D+02

 Estimated scratch disk usage=  4911774408 words.
 Actual    scratch disk usage=  3900313288 words.
 ANorm=    0.1521045328D+01
 E2 =    -0.3358665367D+01 EUMP2 =    -0.99738630523584D+03

 **********************************************************************

            Population analysis using the SCF Density.

 **********************************************************************

 Orbital symmetries:
       Occupied  (A') (A') (A') (A') (A') (A') (A') (A') (A') (A')
                 (A') (A') (A') (A') (A') (A') (A') (A') (A') (A')
                 (A') (A') (A') (A') (A') (A') (A') (A') (A') (A')
                 (A') (A') (A') (A') (A') (A') (A') (A') (A') (A')
                 (A') (A') (A') (A') (A') (A') (A') (A') (A') (A')
                 (A') (A') (A') (A') (A') (A') (A') (A') (A') (A')
                 (A') (A') (A') (A') (A") (A') (A') (A") (A') (A')
                 (A") (A') (A') (A') (A') (A") (A') (A") (A") (A")
                 (A") (A") (A") (A") (A") (A")
       Virtual   (A") (A") (A") (A") (A") (A") (A') (A') (A') (A")
                 (A') (A') (A") (A') (A') (A') (A') (A") (A') (A')
                 (A') (A') (A') (A") (A') (A') (A") (A') (A') (A")
                 (A') (A') (A') (A') (A") (A') (A') (A') (A') (A')
                 (A') (A') (A') (A') (A') (A') (A') (A') (A') (A')
                 (A') (A') (A') (A') (A") (A') (A') (A") (A') (A')
                 (A") (A') (A') (A") (A') (A') (A") (A") (A') (A')
                 (A') (A') (A") (A') (A') (A") (A') (A') (A') (A")
                 (A') (A') (A') (A') (A') (A") (A") (A') (A') (A")
                 (A') (A") (A') (A') (A") (A') (A") (A") (A") (A')
                 (A') (A") (A') (A') (A') (A") (A") (A') (A") (A')
                 (A') (A') (A') (A') (A") (A') (A') (A") (A') (A")
                 (A') (A') (A") (A") (A") (A") (A") (A') (A') (A')
                 (A') (A") (A') (A') (A') (A') (A") (A') (A') (A")
                 (A') (A') (A') (A') (A") (A') (A") (A') (A') (A")
                 (A') (A") (A') (A") (A') (A") (A") (A') (A") (A')
                 (A") (A') (A") (A") (A') (A') (A") (A') (A') (A")
                 (A') (A") (A') (A') (A") (A') (A') (A') (A') (A')
                 (A') (A') (A') (A') (A') (A") (A') (A") (A') (A')
                 (A") (A') (A') (A") (A') (A") (A') (A") (A') (A")
                 (A') (A') (A") (A') (A') (A') (A') (A") (A") (A")
                 (A') (A") (A') (A") (A') (A') (A') (A') (A') (A')
                 (A") (A') (A') (A') (A") (A') (A') (A") (A') (A")
                 (A") (A') (A") (A') (A") (A') (A') (A') (A") (A')
                 (A') (A") (A") (A') (A") (A') (A') (A') (A") (A")
                 (A') (A') (A') (A') (A") (A') (A') (A') (A") (A')
                 (A") (A') (A") (A') (A') (A') (A") (A') (A") (A')
                 (A') (A') (A') (A") (A') (A') (A") (A') (A') (A')
                 (A") (A') (A") (A') (A') (A') (A') (A") (A') (A')
                 (A") (A') (A') (A") (A') (A") (A') (A") (A') (A')
                 (A') (A') (A') (A') (A") (A") (A') (A') (A') (A')
                 (A') (A') (A") (A") (A') (A') (A") (A') (A") (A')
                 (A') (A') (A') (A') (A') (A') (A') (A') (A') (A')
                 (A') (A') (A') (A') (A') (A') (A') (A') (A') (A')
                 (A') (A') (A') (A') (A') (A') (A') (A') (A') (A')
                 (A') (A') (A') (A') (A') (A') (A') (A')
 The electronic state is 1-A'.
 Alpha  occ. eigenvalues --  -11.25698 -11.25588 -11.25574 -11.25475 -11.25358
 Alpha  occ. eigenvalues --  -11.25316 -11.25267 -11.25199 -11.25180 -11.25100
 Alpha  occ. eigenvalues --  -11.24764 -11.24703 -11.24694 -11.24686 -11.24647
 Alpha  occ. eigenvalues --  -11.24646 -11.24619 -11.24610 -11.24608 -11.24606
 Alpha  occ. eigenvalues --  -11.24562 -11.24557 -11.24549 -11.24493 -11.24480
 Alpha  occ. eigenvalues --  -11.24414  -1.19696  -1.18172  -1.15803  -1.12772
 Alpha  occ. eigenvalues --   -1.09824  -1.07794  -1.06434  -1.04702  -1.02672
 Alpha  occ. eigenvalues --   -1.01633  -0.99365  -0.97147  -0.96352  -0.88454
 Alpha  occ. eigenvalues --   -0.87383  -0.84969  -0.83877  -0.82771  -0.81552
 Alpha  occ. eigenvalues --   -0.79438  -0.77006  -0.73878  -0.71079  -0.70551
 Alpha  occ. eigenvalues --   -0.68879  -0.68236  -0.66654  -0.64426  -0.63848
 Alpha  occ. eigenvalues --   -0.63082  -0.61786  -0.60586  -0.60081  -0.59460
 Alpha  occ. eigenvalues --   -0.58947  -0.58382  -0.57556  -0.56998  -0.55775
 Alpha  occ. eigenvalues --   -0.55738  -0.54890  -0.53806  -0.52981  -0.52211
 Alpha  occ. eigenvalues --   -0.50684  -0.50258  -0.49083  -0.47978  -0.47548
 Alpha  occ. eigenvalues --   -0.46776  -0.46320  -0.43338  -0.41463  -0.39193
 Alpha  occ. eigenvalues --   -0.37488  -0.34251  -0.32585  -0.29782  -0.26913
 Alpha  occ. eigenvalues --   -0.25658
 Alpha virt. eigenvalues --    0.05377   0.06158   0.09505   0.12427   0.13265
 Alpha virt. eigenvalues --    0.16469   0.17713   0.18350   0.18596   0.19242
 Alpha virt. eigenvalues --    0.19331   0.19701   0.21188   0.21195   0.21719
 Alpha virt. eigenvalues --    0.23105   0.23676   0.24650   0.24805   0.25140
 Alpha virt. eigenvalues --    0.26459   0.27936   0.29451   0.29984   0.32581
 Alpha virt. eigenvalues --    0.34816   0.35715   0.36519   0.39548   0.40250
 Alpha virt. eigenvalues --    0.40408   0.41033   0.43203   0.43741   0.43859
 Alpha virt. eigenvalues --    0.44078   0.44941   0.45140   0.46488   0.46738
 Alpha virt. eigenvalues --    0.47534   0.48510   0.49365   0.50412   0.51268
 Alpha virt. eigenvalues --    0.53336   0.56700   0.57051   0.58327   0.59271
 Alpha virt. eigenvalues --    0.63068   0.63797   0.64773   0.64873   0.65233
 Alpha virt. eigenvalues --    0.65865   0.66024   0.66441   0.66556   0.67074
 Alpha virt. eigenvalues --    0.67822   0.68075   0.68250   0.68377   0.68981
 Alpha virt. eigenvalues --    0.69611   0.69845   0.70225   0.70585   0.70856
 Alpha virt. eigenvalues --    0.71742   0.72057   0.72071   0.72472   0.72973
 Alpha virt. eigenvalues --    0.73010   0.73449   0.73960   0.74166   0.74688
 Alpha virt. eigenvalues --    0.75047   0.75213   0.75422   0.75936   0.76354
 Alpha virt. eigenvalues --    0.76630   0.76923   0.76941   0.77482   0.78209
 Alpha virt. eigenvalues --    0.78683   0.79553   0.79638   0.80175   0.80387
 Alpha virt. eigenvalues --    0.81293   0.82309   0.83765   0.84087   0.86234
 Alpha virt. eigenvalues --    0.86306   0.86708   0.87939   0.88455   0.88857
 Alpha virt. eigenvalues --    0.89378   0.90339   0.90342   0.90813   0.90948
 Alpha virt. eigenvalues --    0.91590   0.92705   0.93579   0.93901   0.93926
 Alpha virt. eigenvalues --    0.94654   0.97174   0.97304   0.97949   0.99510
 Alpha virt. eigenvalues --    1.00634   1.00895   1.02417   1.02843   1.03336
 Alpha virt. eigenvalues --    1.06480   1.08021   1.08865   1.09285   1.09964
 Alpha virt. eigenvalues --    1.10319   1.10992   1.11268   1.11850   1.12234
 Alpha virt. eigenvalues --    1.12678   1.13309   1.13511   1.13980   1.15079
 Alpha virt. eigenvalues --    1.15426   1.15574   1.16363   1.16653   1.17436
 Alpha virt. eigenvalues --    1.18637   1.18668   1.19264   1.19707   1.20410
 Alpha virt. eigenvalues --    1.20588   1.20798   1.21919   1.22013   1.22646
 Alpha virt. eigenvalues --    1.22659   1.23357   1.24069   1.25163   1.25298
 Alpha virt. eigenvalues --    1.25673   1.25770   1.28189   1.28667   1.29048
 Alpha virt. eigenvalues --    1.30062   1.30986   1.31113   1.32366   1.32369
 Alpha virt. eigenvalues --    1.33333   1.33592   1.33739   1.34662   1.35384
 Alpha virt. eigenvalues --    1.35483   1.36484   1.38846   1.40597   1.44598
 Alpha virt. eigenvalues --    1.46430   1.51165   1.53976   1.54598   1.57853
 Alpha virt. eigenvalues --    1.58612   1.59742   1.60476   1.60751   1.62078
 Alpha virt. eigenvalues --    1.62404   1.62968   1.63916   1.64345   1.65143
 Alpha virt. eigenvalues --    1.65746   1.66459   1.67264   1.67858   1.68142
 Alpha virt. eigenvalues --    1.69031   1.70472   1.71009   1.71588   1.71908
 Alpha virt. eigenvalues --    1.73292   1.74103   1.74223   1.74487   1.74611
 Alpha virt. eigenvalues --    1.76764   1.77214   1.78554   1.79344   1.80531
 Alpha virt. eigenvalues --    1.81667   1.82513   1.83908   1.84209   1.85344
 Alpha virt. eigenvalues --    1.85804   1.86929   1.87575   1.88287   1.88659
 Alpha virt. eigenvalues --    1.89238   1.90031   1.90323   1.90610   1.90799
 Alpha virt. eigenvalues --    1.91149   1.91249   1.91790   1.92782   1.93137
 Alpha virt. eigenvalues --    1.93361   1.94202   1.95339   1.95353   1.96656
 Alpha virt. eigenvalues --    1.97251   1.97384   1.97781   1.98498   1.98604
 Alpha virt. eigenvalues --    1.99608   2.01491   2.02391   2.02531   2.03291
 Alpha virt. eigenvalues --    2.03616   2.03867   2.05064   2.05314   2.06504
 Alpha virt. eigenvalues --    2.06548   2.07627   2.07663   2.08570   2.08645
 Alpha virt. eigenvalues --    2.10091   2.10158   2.10447   2.11199   2.11665
 Alpha virt. eigenvalues --    2.13349   2.14684   2.14839   2.15983   2.16166
 Alpha virt. eigenvalues --    2.16528   2.17451   2.17794   2.18356   2.18682
 Alpha virt. eigenvalues --    2.19157   2.20743   2.21026   2.23092   2.24561
 Alpha virt. eigenvalues --    2.24856   2.24947   2.25576   2.26512   2.27416
 Alpha virt. eigenvalues --    2.28880   2.29895   2.29942   2.32113   2.32705
 Alpha virt. eigenvalues --    2.33553   2.34157   2.35490   2.35889   2.38189
 Alpha virt. eigenvalues --    2.39244   2.39699   2.40075   2.42795   2.43850
 Alpha virt. eigenvalues --    2.46166   2.48652   2.48719   2.49062   2.49388
 Alpha virt. eigenvalues --    2.50602   2.52244   2.53544   2.54740   2.56790
 Alpha virt. eigenvalues --    2.57975   2.59961   2.60983   2.61389   2.61739
 Alpha virt. eigenvalues --    2.63731   2.69189   2.69381   2.69733   2.71547
 Alpha virt. eigenvalues --    2.71612   2.73040   2.75117   2.76800   2.77083
 Alpha virt. eigenvalues --    2.78160   2.79482   2.80956   2.83009   2.92816
 Alpha virt. eigenvalues --    2.93387   2.93647   2.94350   2.96191   2.97521
 Alpha virt. eigenvalues --    3.00713   3.02604   3.03704   3.04102   3.05788
 Alpha virt. eigenvalues --    3.06201   3.07785   3.09198   3.11495   3.14090
 Alpha virt. eigenvalues --    3.18285   3.19945   3.21855   3.22227   3.27053
 Alpha virt. eigenvalues --    3.28884   3.34077   3.62021   3.66317   3.75544
 Alpha virt. eigenvalues --    3.84387   3.91174   3.95694
          Condensed to atoms (all electrons):
 Mulliken charges:
               1
     1  C   -0.015238
     2  C   -0.018104
     3  C    0.020522
     4  C   -0.082491
     5  C    0.036237
     6  C   -0.030645
     7  C   -0.091333
     8  C    0.034646
     9  C    0.033271
    10  C   -0.081584
    11  C    0.045166
    12  C   -0.030724
    13  C   -0.080559
    14  C    0.030986
    15  C    0.031939
    16  C   -0.102008
    17  C    0.027538
    18  C   -0.011678
    19  C    0.005701
    20  C   -0.029283
    21  C   -0.034825
    22  C    0.044929
    23  C   -0.028359
    24  C    0.079881
    25  C   -0.096300
    26  C    0.022985
    27  H    0.031044
    28  H    0.030352
    29  H    0.016797
    30  H    0.014068
    31  H    0.017233
    32  H    0.016886
    33  H    0.014985
    34  H    0.016333
    35  H    0.018996
    36  H    0.018810
    37  H    0.029609
    38  H    0.027642
    39  H    0.023510
    40  H    0.014550
    41  H    0.011520
    42  H    0.016994
 Sum of Mulliken charges =  -0.00000
 Mulliken charges with hydrogens summed into heavy atoms:
               1
     1  C    0.015805
     2  C    0.012248
     3  C    0.037319
     4  C   -0.082491
     5  C    0.050306
     6  C   -0.030645
     7  C   -0.091333
     8  C    0.051879
     9  C    0.050157
    10  C   -0.081584
    11  C    0.060151
    12  C   -0.030724
    13  C   -0.080559
    14  C    0.047319
    15  C    0.050935
    16  C   -0.102008
    17  C    0.046348
    18  C    0.017930
    19  C    0.033343
    20  C   -0.005773
    21  C   -0.034825
    22  C    0.059479
    23  C   -0.028359
    24  C    0.091401
    25  C   -0.096300
    26  C    0.039980
 Electronic spatial extent (au):  <R**2>=          12500.2993
 Charge=             -0.0000 electrons
 Dipole moment (field-independent basis, Debye):
    X=             -0.0291    Y=             -0.0297    Z=              0.0000  Tot=              0.0416
 Unable to Open any file for archive entry.
 1\1\GINC-NODE01\SP\RMP2-FC\CC-pVDZ\C26H16\XUHJ\11-Oct-2024\0\\#T MP2/c
 c-pVDZ symm=veryloose\\c1ccc2cc3c(ccc4cc5c(ccc6ccccc65)cc43)cc2c1\\0,1
 \C,0,-3.884571,5.665611,0.\C,0,-4.68867,4.491552,0.\C,0,-4.101436,3.24
 6658,0.\C,0,-2.682104,3.106975,0.\C,0,-2.051916,1.844436,0.\C,0,-0.666
 672,1.700615,0.\C,0,0.143005,2.895581,0.\C,0,1.582007,2.776697,0.\C,0,
 2.193393,1.564503,0.\C,0,1.433193,0.337084,0.\C,0,2.083329,-0.902591,0
 .\C,0,1.388237,-2.12063,0.\C,0,-0.043729,-2.064525,0.\C,0,-0.800392,-3
 .28704,0.\C,0,-0.181119,-4.499498,0.\C,0,1.253828,-4.60574,0.\C,0,1.88
 4688,-5.871887,0.\C,0,3.264833,-5.983284,0.\C,0,4.05543,-4.817975,0.\C
 ,0,3.457322,-3.566813,0.\C,0,2.050591,-3.421284,0.\C,0,-0.693927,-0.81
 8332,0.\C,0,0.,0.393072,0.\C,0,-0.469381,4.147797,0.\C,0,-1.870199,4.2
 94239,0.\C,0,-2.511732,5.567981,0.\H,0,-4.365067,6.648476,0.\H,0,-5.77
 8726,4.584204,0.\H,0,-4.717592,2.341992,0.\H,0,-2.696319,0.96286,0.\H,
 0,2.173194,3.697399,0.\H,0,3.285358,1.493267,0.\H,0,3.17503,-0.8959,0.
 \H,0,-1.892656,-3.220326,0.\H,0,-0.768104,-5.422969,0.\H,0,1.257995,-6
 .769177,0.\H,0,3.739045,-6.969048,0.\H,0,5.146496,-4.897463,0.\H,0,4.0
 95558,-2.681372,0.\H,0,-1.785793,-0.825053,0.\H,0,0.157457,5.045267,0.
 \H,0,-1.889927,6.468628,0.\\Version=ES64L-G16RevC.01\State=1-A'\HF=-99
 4.0276399\MP2=-997.3863052\RMSD=9.585e-09\PG=CS [SG(C26H16)]\\@
 The archive entry for this job was punched.


 HAPPINESS IS NOT HAVING WHAT YOU WANT --
 HAPPINESS IS WANTING WHAT YOU HAVE!

              -- FROM MRS. SEVERN'S DESK
 Job cpu time:       0 days  0 hours 22 minutes  4.8 seconds.
 Elapsed time:       0 days  0 hours  2 minutes 45.6 seconds.
 File lengths (MBytes):  RWF=  29871 Int=      0 D2E=      0 Chk=     14 Scr=      1
 Normal termination of Gaussian 16 at Fri Oct 11 15:23:53 2024.
