 Entering Gaussian System, Link 0=g16
 Initial command:
 /opt/g16/l1.exe "/tmp/Gau-2520826.inp" -scrdir="/tmp/"
 Entering Link 1 = /opt/g16/l1.exe PID=   2520828.
  
 Copyright (c) 1988-2019, Gaussian, Inc.  All Rights Reserved.
  
 This is part of the Gaussian(R) 16 program.  It is based on
 the Gaussian(R) 09 system (copyright 2009, Gaussian, Inc.),
 the Gaussian(R) 03 system (copyright 2003, Gaussian, Inc.),
 the Gaussian(R) 98 system (copyright 1998, Gaussian, Inc.),
 the Gaussian(R) 94 system (copyright 1995, Gaussian, Inc.),
 the Gaussian 92(TM) system (copyright 1992, Gaussian, Inc.),
 the Gaussian 90(TM) system (copyright 1990, Gaussian, Inc.),
 the Gaussian 88(TM) system (copyright 1988, Gaussian, Inc.),
 the Gaussian 86(TM) system (copyright 1986, Carnegie Mellon
 University), and the Gaussian 82(TM) system (copyright 1983,
 Carnegie Mellon University). Gaussian is a federally registered
 trademark of Gaussian, Inc.
  
 This software contains proprietary and confidential information,
 including trade secrets, belonging to Gaussian, Inc.
  
 This software is provided under written license and may be
 used, copied, transmitted, or stored only in accord with that
 written license.
  
 The following legend is applicable only to US Government
 contracts under FAR:
  
                    RESTRICTED RIGHTS LEGEND
  
 Use, reproduction and disclosure by the US Government is
 subject to restrictions as set forth in subparagraphs (a)
 and (c) of the Commercial Computer Software - Restricted
 Rights clause in FAR 52.227-19.
  
 Gaussian, Inc.
 340 Quinnipiac St., Bldg. 40, Wallingford CT 06492
  
  
 ---------------------------------------------------------------
 Warning -- This program may not be used in any manner that
 competes with the business of Gaussian, Inc. or will provide
 assistance to any competitor of Gaussian, Inc.  The licensee
 of this program is prohibited from giving any competitor of
 Gaussian, Inc. access to this program.  By using this program,
 the user acknowledges that Gaussian, Inc. is engaged in the
 business of creating and licensing software in the field of
 computational chemistry and represents and warrants to the
 licensee that it is not a competitor of Gaussian, Inc. and that
 it will not use this program in any manner prohibited above.
 ---------------------------------------------------------------
  

 Cite this work as:
 Gaussian 16, Revision C.01,
 M. J. Frisch, G. W. Trucks, H. B. Schlegel, G. E. Scuseria, 
 M. A. Robb, J. R. Cheeseman, G. Scalmani, V. Barone, 
 G. A. Petersson, H. Nakatsuji, X. Li, M. Caricato, A. V. Marenich, 
 J. Bloino, B. G. Janesko, R. Gomperts, B. Mennucci, H. P. Hratchian, 
 J. V. Ortiz, A. F. Izmaylov, J. L. Sonnenberg, D. Williams-Young, 
 F. Ding, F. Lipparini, F. Egidi, J. Goings, B. Peng, A. Petrone, 
 T. Henderson, D. Ranasinghe, V. G. Zakrzewski, J. Gao, N. Rega, 
 G. Zheng, W. Liang, M. Hada, M. Ehara, K. Toyota, R. Fukuda, 
 J. Hasegawa, M. Ishida, T. Nakajima, Y. Honda, O. Kitao, H. Nakai, 
 T. Vreven, K. Throssell, J. A. Montgomery, Jr., J. E. Peralta, 
 F. Ogliaro, M. J. Bearpark, J. J. Heyd, E. N. Brothers, K. N. Kudin, 
 V. N. Staroverov, T. A. Keith, R. Kobayashi, J. Normand, 
 K. Raghavachari, A. P. Rendell, J. C. Burant, S. S. Iyengar, 
 J. Tomasi, M. Cossi, J. M. Millam, M. Klene, C. Adamo, R. Cammi, 
 J. W. Ochterski, R. L. Martin, K. Morokuma, O. Farkas, 
 J. B. Foresman, and D. J. Fox, Gaussian, Inc., Wallingford CT, 2019.
 
 ******************************************
 Gaussian 16:  ES64L-G16RevC.01  3-Jul-2019
                11-Oct-2024 
 ******************************************
 %nprocshared=8
 Will use up to    8 processors via shared memory.
 %mem=10400MB
 -----------------------------
 #T MP2/cc-pVDZ symm=veryloose
 -----------------------------
 ------------------------------------------
 c1ccc2c(c1)ccc1cc3c(ccc4c5ccccc5ccc34)cc12
 ------------------------------------------
 Symbolic Z-matrix:
 Charge =  0 Multiplicity = 1
 C                     4.25033   5.3303    0. 
 C                     2.85567   5.51823   0. 
 C                     2.00244   4.42398   0. 
 C                     2.49943   3.10106   0. 
 C                     3.91396   2.9161    0. 
 C                     4.76583   4.04436   0. 
 C                     4.45978   1.58274   0. 
 C                     3.65305   0.48772   0. 
 C                     2.21914   0.61629   0. 
 C                     1.40074  -0.52062   0. 
 C                     0.       -0.44423   0. 
 C                    -0.5868    0.86557   0. 
 C                    -2.01334   0.98303   0. 
 C                    -2.81534  -0.12058   0. 
 C                    -2.27464  -1.45141   0. 
 C                    -3.13913  -2.6167    0. 
 C                    -4.55675  -2.53092   0. 
 C                    -5.34965  -3.6643    0. 
 C                    -4.76356  -4.94904   0. 
 C                    -3.388    -5.06912   0. 
 C                    -2.55432  -3.92186   0. 
 C                    -1.13273  -4.0439    0. 
 C                    -0.32698  -2.93879   0. 
 C                    -0.86729  -1.6149    0. 
 C                     0.23375   2.00552   0. 
 C                     1.62865   1.92667   0. 
 H                     4.92163   6.19399   0. 
 H                     2.4398    6.53005   0. 
 H                     0.92523   4.60029   0. 
 H                     5.84842   3.88344   0. 
 H                     5.54826   1.47051   0. 
 H                     4.08188  -0.51906   0. 
 H                     1.89925  -1.49121   0. 
 H                    -2.4546    1.98436   0. 
 H                    -3.89649   0.01979   0. 
 H                    -5.0452   -1.55572   0. 
 H                    -6.43893  -3.56273   0. 
 H                    -5.39709  -5.84081   0. 
 H                    -2.91695  -6.05702   0. 
 H                    -0.69285  -5.04579   0. 
 H                     0.75441  -3.07951   0. 
 H                    -0.26219   2.97814   0. 
 
                    Distance matrix (angstroms):
                    1          2          3          4          5
     1  C    0.000000
     2  C    1.407258   0.000000
     3  C    2.423720   1.387588   0.000000
     4  C    2.834638   2.443286   1.413195   0.000000
     5  C    2.437528   2.809108   2.434671   1.426571   0.000000
     6  C    1.385424   2.412676   2.789344   2.454870   1.413740
     7  C    3.753412   4.249854   3.756483   2.479569   1.440748
     8  C    4.879280   5.093317   4.268331   2.856637   2.442353
     9  C    5.132996   4.943098   3.813849   2.500526   2.856839
    10  C    6.507955   6.211650   4.981076   3.784665   4.257617
    11  C    7.170111   6.611036   5.263952   4.337765   5.158572
    12  C    6.582675   5.787734   4.400728   3.810802   4.945856
    13  C    7.624451   6.653969   5.288343   4.985089   6.234549
    14  C    8.923889   7.997288   6.622992   6.214961   7.382743
    15  C    9.410994   8.654249   7.267297   6.596719   7.574553
    16  C   10.851682  10.105189   8.718196   8.030328   8.964261
    17  C   11.805226  10.942248   9.559995   9.028222  10.070892
    18  C   13.155322  12.314475  10.930394  10.362344  11.362928
    19  C   13.671690  12.946681  11.559942  10.842285  11.711523
    20  C   12.903183  12.291280  10.916768  10.070437  10.820461
    21  C   11.485025  10.880415   9.508792   8.652272   9.412563
    22  C   10.809854  10.360583   9.029629   8.015171   8.597127
    23  C    9.451433   9.036064   7.722467   6.668456   7.229469
    24  C    8.627046   8.046248   6.686065   5.794404   6.587134
    25  C    5.214126   4.383340   2.996203   2.516650   3.791189
    26  C    4.296266   3.795378   2.525125   1.461999   2.490303
    27  H    1.093897   2.173670   3.413889   3.928525   3.429287
    28  H    2.171959   1.093953   2.151009   3.429515   3.903056
    29  H    3.404288   2.137574   1.091542   2.173891   3.430600
    30  H    2.155765   3.410143   3.883778   3.439161   2.162839
    31  H    4.072184   4.861495   4.614745   3.457467   2.181897
    32  H    5.851793   6.160564   5.362626   3.950878   3.439262
    33  H    7.215309   7.074397   5.916093   4.631326   4.845973
    34  H    7.493422   6.378657   5.081037   5.078329   6.436356
    35  H    9.724821   8.707730   7.361673   7.099436   8.330168
    36  H   11.568235  10.604930   9.242617   8.866057  10.013173
    37  H   13.904901  12.994366  11.620854  11.149008  12.213008
    38  H   14.760300  14.040512  12.653812  11.929462  12.781982
    39  H   13.455149  12.934825  11.578072  10.639906  11.277330
    40  H   11.493406  11.144086   9.845870   8.749962   9.198608
    41  H    9.107496   8.850795   7.606575   6.422194   6.777176
    42  H    5.088758   4.021583   2.686817   2.764353   4.176610
                    6          7          8          9         10
     6  C    0.000000
     7  C    2.480570   0.000000
     8  C    3.726657   1.360107   0.000000
     9  C    4.270515   2.440187   1.439664   0.000000
    10  C    5.671233   3.712394   2.467720   1.400837   0.000000
    11  C    6.546797   4.898801   3.770052   2.459527   1.402823
    12  C    6.225378   5.097285   4.256653   2.816990   2.423192
    13  C    7.438336   6.500841   5.687994   4.248335   3.730538
    14  C    8.649906   7.471861   6.496929   5.088118   4.235017
    15  C    8.931499   7.386371   6.236800   4.946655   3.791407
    16  C   10.337222   8.682097   7.468009   6.258059   5.000400
    17  C   11.408099   9.910600   8.747167   7.471114   6.287525
    18  C   12.717957  11.124587   9.914025   8.695403   7.446510
    19  C   13.103074  11.301957  10.019865   8.929222   7.590093
    20  C   12.228676  10.287614   8.969664   7.985233   6.604613
    21  C   10.818748   8.916182   7.614187   6.586406   5.216412
    22  C   10.010640   7.933174   6.590845   5.740416   4.339579
    23  C    8.642976   6.584626   5.251816   4.372789   2.971958
    24  C    7.984943   6.213102   4.985428   3.808448   2.518218
    25  C    4.969572   4.247128   3.741032   2.423162   2.782668
    26  C    3.785037   2.851947   2.483704   1.437282   2.457884
    27  H    2.155272   4.634322   5.845585   6.197922   7.581737
    28  H    3.404277   5.343804   6.162937   5.917879   7.126829
    29  H    3.880626   4.647435   4.935001   4.188848   5.142943
    30  H    1.094482   2.687286   4.043580   4.883227   6.259198
    31  H    2.690153   1.094252   2.134878   3.436969   4.600709
    32  H    4.614392   2.135507   1.094308   2.181479   2.681142
    33  H    6.233768   4.000692   2.644238   2.131644   1.091127
    34  H    7.508542   6.926034   6.288345   4.869848   4.597669
    35  H    9.551592   8.501179   7.564024   6.144647   5.324722
    36  H   11.296775  10.009723   8.935050   7.582096   6.528517
    37  H   13.543061  12.052296  10.874475   9.613864   8.409215
    38  H   14.177501  12.339652  11.043336   9.985043   8.632201
    39  H   12.691060  10.619894   9.273538   8.420956   7.020981
    40  H   10.603210   8.395659   7.036093   6.367014   4.986010
    41  H    8.175640   5.955369   4.596442   3.975476   2.639256
    42  H    5.139824   4.923834   4.640181   3.425684   3.873845
                   11         12         13         14         15
    11  C    0.000000
    12  C    1.435240   0.000000
    13  C    2.467915   1.431366   0.000000
    14  C    2.833882   2.436984   1.364247   0.000000
    15  C    2.487648   2.866568   2.448429   1.436480   0.000000
    16  C    3.817564   4.317480   3.771671   2.517033   1.450948
    17  C    5.011809   5.224618   4.337831   2.973587   2.524553
    18  C    6.244009   6.573014   5.720901   4.356683   3.788482
    19  C    6.556284   7.159265   6.538596   5.206688   4.292803
    20  C    5.733080   6.562572   6.206311   4.981567   3.785156
    21  C    4.314916   5.175971   4.934639   3.810232   2.486231
    22  C    3.773684   4.939730   5.103477   4.268907   2.832827
    23  C    2.515897   3.813221   4.269012   3.759549   2.450640
    24  C    1.456941   2.496287   2.839490   2.455178   1.416810
    25  C    2.460870   1.404553   2.468779   3.717153   4.271106
    26  C    2.876398   2.456450   3.762250   4.892881   5.162082
    27  H    8.263682   7.663869   8.674556   9.986720  10.499453
    28  H    7.388724   6.422356   7.113360   8.476288   9.269829
    29  H    5.128666   4.029187   4.660444   6.023164   6.845602
    30  H    7.275483   7.107709   8.379710   9.544257   9.718262
    31  H    5.869363   6.164815   7.577298   8.513601   8.350769
    32  H    4.082569   4.869684   6.277581   6.908725   6.424532
    33  H    2.168715   3.425622   4.629280   4.909784   4.174074
    34  H    3.452981   2.177234   1.094240   2.135626   3.440480
    35  H    3.924019   3.416047   2.115205   1.090221   2.189711
    36  H    5.166181   5.073456   3.954419   2.651770   2.772524
    37  H    7.154362   7.338754   6.344276   4.997880   4.668942
    38  H    7.632279   8.253150   7.616735   6.275865   5.386700
    39  H    6.325508   7.304240   7.097809   5.937311   4.650183
    40  H    4.653434   5.912317   6.171744   5.363084   3.927036
    41  H    2.741142   4.166839   4.915760   4.636634   3.438867
    42  H    3.432396   2.137361   2.654615   4.015054   4.865274
                   16         17         18         19         20
    16  C    0.000000
    17  C    1.420209   0.000000
    18  C    2.446193   1.383205   0.000000
    19  C    2.842284   2.426953   1.412111   0.000000
    20  C    2.465017   2.794363   2.412798   1.380791   0.000000
    21  C    1.430192   2.438123   2.807171   2.436358   1.418178
    22  C    2.462220   3.743393   4.233970   3.741952   2.477363
    23  C    2.830537   4.249388   5.074800   4.870768   3.729368
    24  C    2.482914   3.801470   4.928649   5.128098   4.276167
    25  C    5.721994   6.597581   7.957461   8.563817   7.947804
    26  C    6.585893   7.624253   8.941793   9.388066   8.608597
    27  H   11.941702  12.882692  14.236757  14.763813  13.996706
    28  H   10.713899  11.447833  12.829671  13.552050  12.980917
    29  H    8.282754   8.994788  10.376783  11.115399  10.587801
    30  H   11.091792  12.223396  13.504262  13.806765  12.863116
    31  H    9.600838  10.868424  12.047023  12.146781  11.073552
    32  H    7.519518   8.869809   9.942151   9.892754   8.746554
    33  H    5.162558   6.539180   7.567619   7.506637   6.384077
    34  H    4.651701   4.980635   6.347336   7.307758   7.114972
    35  H    2.743111   2.634775   3.960328   5.043915   5.114252
    36  H    2.181459   1.090684   2.130449   3.404989   3.884624
    37  H    3.432732   2.146451   1.094006   2.174565   3.402559
    38  H    3.936148   3.414907   2.177030   1.093898   2.152192
    39  H    3.447488   3.888748   3.412206   2.153508   1.094456
    40  H    3.447431   4.610239   4.857397   4.071860   2.695251
    41  H    3.920949   5.339413   6.132006   5.826071   4.595442
    42  H    6.291189   6.985195   8.366858   9.116061   8.633027
                   21         22         23         24         25
    21  C    0.000000
    22  C    1.426817   0.000000
    23  C    2.434643   1.367664   0.000000
    24  C    2.857993   2.443452   1.429894   0.000000
    25  C    6.550354   6.201826   4.975995   3.784142   0.000000
    26  C    7.190452   6.578215   5.243774   4.332722   1.397126
    27  H   12.578569  11.894103  10.533545   9.720623   6.286461
    28  H   11.583774  11.161157   9.864787   8.790746   5.033698
    29  H    9.205127   8.885785   7.642362   6.468523   2.685332
    30  H   11.468596  10.563098   9.202079   8.679429   5.920396
    31  H    9.732908   8.662812   7.345770   7.118924   5.341376
    32  H    7.457764   6.294176   5.029228   5.069042   4.602352
    33  H    5.073690   3.963469   2.655477   2.769303   3.873113
    34  H    5.907061   6.171480   5.363216   3.933730   2.688430
    35  H    4.163894   4.914455   4.636220   3.442129   4.582790
    36  H    3.435563   4.636637   4.916751   4.178325   6.367861
    37  H    3.901177   5.327972   6.143717   5.902305   8.690801
    38  H    3.429824   4.627486   5.841895   6.194946   9.657701
    39  H    2.165735   2.690001   4.053558   4.892188   8.656293
    40  H    2.174463   1.094209   2.138537   3.435320   7.111929
    41  H    3.414269   2.119275   1.090505   2.185173   5.111615
    42  H    7.270757   7.075792   5.917281   4.632733   1.091766
                   26         27         28         29         30
    26  C    0.000000
    27  H    5.390154   0.000000
    28  H    4.674301   2.504483   0.000000
    29  H    2.764603   4.302454   2.453143   0.000000
    30  H    4.651384   2.489497   4.315468   4.975102   0.000000
    31  H    3.946069   4.764871   5.938146   5.582829   2.431528
    32  H    3.464100   6.765375   7.237853   6.014336   4.743696
    33  H    3.428582   8.258160   8.039462   6.168885   6.669543
    34  H    4.083654   8.492927   6.679708   4.273916   8.517428
    35  H    5.844941  10.764759   9.084718   6.650562  10.482888
    36  H    7.527766  12.625202  11.018390   8.575691  12.176011
    37  H    9.758042  14.975181  13.442327  10.993898  14.367475
    38  H   10.473529  15.852840  14.644289  12.206079  14.866822
    39  H    9.187047  14.544096  13.679520  11.328754  13.253089
    40  H    7.348785  12.564044  11.992237   9.780854  11.068845
    41  H    5.081948  10.166793   9.756247   7.681704   8.627376
    42  H    2.163527   6.100304   4.462828   2.010308   6.177302
                   31         32         33         34         35
    31  H    0.000000
    32  H    2.471569   0.000000
    33  H    4.699690   2.389345   0.000000
    34  H    8.019341   6.999479   5.570958   0.000000
    35  H    9.555516   7.996546   5.989464   2.436919   0.000000
    36  H   11.017233   9.185763   6.944745   4.386723   1.949809
    37  H   13.001011  10.952235   8.591649   6.829720   4.393000
    38  H   13.162677  10.870689   8.494440   8.360116   6.049666
    39  H   11.327995   8.924832   6.636442   8.054660   6.155251
    40  H    9.022951   6.579465   4.399319   7.247535   5.993612
    41  H    6.609367   4.198571   1.957896   5.995039   5.588960
    42  H    6.002858   5.576863   4.964568   2.407128   4.686147
                   36         37         38         39         40
    36  H    0.000000
    37  H    2.443478   0.000000
    38  H    4.299519   2.505019   0.000000
    39  H    4.979073   4.315770   2.489543   0.000000
    40  H    5.578846   5.934385   4.770942   2.443194   0.000000
    41  H    5.996444   7.209551   6.742822   4.726987   2.441477
    42  H    6.590376   8.996396  10.204957   9.417107   8.035482
                   41         42
    41  H    0.000000
    42  H    6.142364   0.000000
 Framework group  CS[SG(C26H16)]
 Deg. of freedom    81
                         Standard orientation:                         
 ---------------------------------------------------------------------
 Center     Atomic      Atomic             Coordinates (Angstroms)
 Number     Number       Type             X           Y           Z
 ---------------------------------------------------------------------
      1          6           0       -4.250328   -5.330304    0.000000
      2          6           0       -2.855675   -5.518233    0.000000
      3          6           0       -2.002441   -4.423979    0.000000
      4          6           0       -2.499431   -3.101058    0.000000
      5          6           0       -3.913961   -2.916096    0.000000
      6          6           0       -4.765832   -4.044359    0.000000
      7          6           0       -4.459782   -1.582741    0.000000
      8          6           0       -3.653049   -0.487719    0.000000
      9          6           0       -2.219138   -0.616291    0.000000
     10          6           0       -1.400741    0.520622    0.000000
     11          6           0       -0.000000    0.444227   -0.000000
     12          6           0        0.586800   -0.865574   -0.000000
     13          6           0        2.013338   -0.983034   -0.000000
     14          6           0        2.815340    0.120580   -0.000000
     15          6           0        2.274636    1.451412   -0.000000
     16          6           0        3.139133    2.616700   -0.000000
     17          6           0        4.556749    2.530914   -0.000000
     18          6           0        5.349652    3.664299   -0.000000
     19          6           0        4.763563    4.949039   -0.000000
     20          6           0        3.388003    5.069122   -0.000000
     21          6           0        2.554322    3.921861   -0.000000
     22          6           0        1.132733    4.043895   -0.000000
     23          6           0        0.326981    2.938785   -0.000000
     24          6           0        0.867291    1.614904   -0.000000
     25          6           0       -0.233749   -2.005516    0.000000
     26          6           0       -1.628649   -1.926673    0.000000
     27          1           0       -4.921635   -6.193991    0.000000
     28          1           0       -2.439802   -6.530055    0.000000
     29          1           0       -0.925233   -4.600291    0.000000
     30          1           0       -5.848419   -3.883435    0.000000
     31          1           0       -5.548263   -1.470504    0.000000
     32          1           0       -4.081883    0.519064    0.000000
     33          1           0       -1.899248    1.491214    0.000000
     34          1           0        2.454598   -1.984358   -0.000000
     35          1           0        3.896487   -0.019790   -0.000000
     36          1           0        5.045197    1.555717   -0.000000
     37          1           0        6.438933    3.562726   -0.000000
     38          1           0        5.397088    5.840812   -0.000000
     39          1           0        2.916951    6.057021   -0.000000
     40          1           0        0.692853    5.045792   -0.000000
     41          1           0       -0.754406    3.079513   -0.000000
     42          1           0        0.262188   -2.978141    0.000000
 ---------------------------------------------------------------------
 Rotational constants (GHZ):           0.7872717           0.0889962           0.0799575
   444 basis functions,   970 primitive gaussians,   470 cartesian basis functions
    86 alpha electrons       86 beta electrons
       nuclear repulsion energy      1948.7403828528 Hartrees.
 NAtoms=   42 NActive=   42 NUniq=   42 SFac= 1.00D+00 NAtFMM=   60 NAOKFM=F Big=F
 ExpMin= 1.22D-01 ExpMax= 6.67D+03 ExpMxC= 2.28D+02 IAcc=3 IRadAn=         5 AccDes= 0.00D+00
 Harris functional with IExCor=  205 and IRadAn=       5 diagonalized for initial guess.
 HarFok:  IExCor=  205 AccDes= 0.00D+00 IRadAn=         5 IDoV= 1 UseB2=F ITyADJ=14
 ICtDFT=  3500011 ScaDFX=  1.000000  1.000000  1.000000  1.000000
 FoFCou: FMM=F IPFlag=           0 FMFlag=      100000 FMFlg1=           0
         NFxFlg=           0 DoJE=T BraDBF=F KetDBF=T FulRan=T
         wScrn=  0.000000 ICntrl=       500 IOpCl=  0 I1Cent=   200000004 NGrid=           0
         NMat0=    1 NMatS0=      1 NMatT0=    0 NMatD0=    1 NMtDS0=    0 NMtDT0=    0
 Petite list used in FoFCou.
 Initial guess orbital symmetries:
       Occupied  (A') (A') (A') (A') (A') (A') (A') (A') (A') (A')
                 (A') (A') (A') (A') (A') (A') (A') (A') (A') (A')
                 (A') (A') (A') (A') (A') (A') (A') (A') (A') (A')
                 (A') (A') (A') (A') (A') (A') (A') (A') (A') (A')
                 (A') (A') (A') (A') (A') (A') (A') (A') (A') (A')
                 (A') (A') (A') (A') (A') (A') (A') (A') (A') (A')
                 (A') (A') (A') (A') (A') (A") (A') (A") (A') (A')
                 (A") (A') (A') (A') (A") (A') (A') (A") (A") (A")
                 (A") (A") (A") (A") (A") (A")
       Virtual   (A") (A") (A") (A") (A") (A") (A") (A") (A") (A")
                 (A') (A') (A') (A") (A') (A') (A') (A') (A') (A")
                 (A') (A') (A') (A') (A') (A') (A") (A') (A') (A')
                 (A') (A') (A') (A') (A') (A') (A') (A') (A') (A')
                 (A') (A') (A') (A') (A') (A') (A') (A') (A') (A')
                 (A') (A') (A') (A') (A') (A") (A') (A") (A') (A')
                 (A") (A') (A") (A') (A') (A') (A') (A") (A") (A')
                 (A') (A') (A') (A') (A') (A') (A") (A') (A') (A')
                 (A') (A") (A') (A') (A") (A') (A') (A") (A') (A")
                 (A') (A') (A") (A") (A') (A") (A") (A") (A") (A')
                 (A') (A') (A") (A') (A') (A') (A') (A') (A") (A")
                 (A') (A') (A") (A') (A") (A') (A') (A") (A') (A')
                 (A') (A") (A") (A") (A") (A") (A') (A') (A') (A")
                 (A') (A") (A') (A') (A') (A') (A") (A') (A') (A")
                 (A') (A') (A") (A') (A') (A") (A') (A") (A") (A')
                 (A') (A") (A') (A") (A") (A') (A") (A") (A') (A')
                 (A") (A") (A') (A') (A") (A') (A") (A") (A') (A')
                 (A') (A") (A') (A') (A') (A') (A') (A') (A') (A')
                 (A') (A') (A') (A") (A') (A') (A') (A") (A') (A")
                 (A') (A') (A") (A') (A') (A") (A') (A') (A") (A')
                 (A") (A') (A') (A') (A") (A') (A') (A") (A') (A")
                 (A") (A') (A") (A') (A') (A") (A') (A') (A') (A')
                 (A') (A') (A") (A') (A') (A') (A') (A") (A') (A')
                 (A") (A') (A") (A') (A") (A') (A") (A') (A") (A")
                 (A') (A") (A') (A") (A') (A') (A") (A") (A') (A")
                 (A') (A') (A') (A') (A") (A') (A') (A') (A") (A')
                 (A") (A') (A') (A") (A') (A") (A') (A") (A') (A')
                 (A') (A') (A') (A") (A') (A') (A") (A') (A') (A")
                 (A') (A") (A') (A') (A') (A") (A') (A') (A') (A')
                 (A') (A") (A') (A') (A") (A") (A") (A') (A') (A')
                 (A') (A') (A') (A") (A") (A') (A') (A') (A') (A')
                 (A') (A') (A") (A') (A") (A') (A') (A') (A") (A")
                 (A') (A') (A') (A') (A') (A') (A') (A') (A') (A')
                 (A') (A') (A') (A') (A') (A') (A') (A') (A') (A')
                 (A') (A') (A') (A') (A') (A') (A') (A') (A') (A')
                 (A') (A') (A') (A') (A') (A') (A') (A')
 The electronic state of the initial guess is 1-A'.
 Integral accuracy reduced to 1.0D-05 until final iterations.
 Initial convergence to 1.0D-05 achieved.  Increase integral accuracy.
 SCF Done:  E(RHF) =  -994.029953426     A.U. after   16 cycles
            NFock= 16  Conv=0.84D-08     -V/T= 2.0012
 ExpMin= 1.22D-01 ExpMax= 6.67D+03 ExpMxC= 2.28D+02 IAcc=3 IRadAn=         5 AccDes= 0.00D+00
 HarFok:  IExCor=  205 AccDes= 0.00D+00 IRadAn=         5 IDoV=-2 UseB2=F ITyADJ=14
 ICtDFT= 12500011 ScaDFX=  1.000000  1.000000  1.000000  1.000000
 GSVD:  LWork=        -884 too small for GESVD, short by        3770 words or        3770 for optimal perf.
 NROrb=    418 NOA=    60 NOB=    60 NVA=   358 NVB=   358

 **** Warning!!: The largest alpha MO coefficient is  0.17143519D+02

 Estimated scratch disk usage=  4932424368 words.
 Actual    scratch disk usage=  3921035952 words.
 ANorm=    0.1521054488D+01
 E2 =    -0.3360282523D+01 EUMP2 =    -0.99739023594898D+03

 **********************************************************************

            Population analysis using the SCF Density.

 **********************************************************************

 Orbital symmetries:
       Occupied  (A') (A') (A') (A') (A') (A') (A') (A') (A') (A')
                 (A') (A') (A') (A') (A') (A') (A') (A') (A') (A')
                 (A') (A') (A') (A') (A') (A') (A') (A') (A') (A')
                 (A') (A') (A') (A') (A') (A') (A') (A') (A') (A')
                 (A') (A') (A') (A') (A') (A') (A') (A') (A') (A')
                 (A') (A') (A') (A') (A') (A') (A') (A') (A') (A')
                 (A') (A') (A') (A') (A') (A") (A') (A") (A') (A')
                 (A") (A') (A') (A') (A') (A") (A') (A") (A") (A")
                 (A") (A") (A") (A") (A") (A")
       Virtual   (A") (A") (A") (A") (A") (A") (A') (A') (A") (A')
                 (A') (A') (A') (A') (A") (A') (A') (A') (A') (A")
                 (A') (A') (A") (A') (A') (A") (A') (A') (A') (A')
                 (A') (A") (A') (A') (A') (A") (A') (A') (A') (A')
                 (A') (A') (A') (A') (A') (A') (A') (A') (A') (A')
                 (A') (A') (A') (A') (A") (A') (A") (A') (A') (A')
                 (A') (A") (A") (A') (A') (A") (A") (A') (A') (A')
                 (A') (A") (A') (A') (A") (A') (A') (A') (A') (A')
                 (A') (A") (A') (A') (A") (A') (A") (A') (A') (A')
                 (A") (A") (A') (A") (A') (A") (A') (A") (A") (A')
                 (A') (A") (A') (A') (A') (A") (A") (A') (A') (A")
                 (A') (A') (A") (A') (A') (A') (A") (A') (A') (A")
                 (A') (A') (A") (A") (A") (A") (A') (A") (A') (A')
                 (A") (A') (A') (A') (A') (A') (A") (A') (A') (A')
                 (A") (A') (A') (A') (A") (A') (A") (A') (A') (A")
                 (A") (A') (A") (A') (A") (A') (A") (A') (A") (A")
                 (A') (A') (A") (A') (A") (A') (A') (A") (A') (A")
                 (A") (A') (A') (A") (A') (A') (A') (A') (A') (A')
                 (A') (A') (A') (A') (A') (A") (A') (A') (A") (A')
                 (A') (A") (A') (A") (A') (A') (A") (A") (A") (A')
                 (A') (A') (A") (A') (A') (A") (A') (A') (A") (A")
                 (A') (A") (A') (A") (A') (A') (A') (A') (A') (A")
                 (A') (A') (A') (A') (A") (A") (A') (A') (A") (A')
                 (A") (A") (A') (A") (A') (A") (A') (A') (A') (A')
                 (A") (A') (A") (A') (A') (A') (A") (A") (A') (A')
                 (A') (A") (A') (A') (A") (A') (A') (A") (A') (A")
                 (A') (A") (A') (A') (A') (A") (A') (A') (A") (A')
                 (A') (A') (A') (A") (A') (A') (A") (A') (A') (A')
                 (A') (A") (A') (A") (A') (A') (A") (A') (A') (A')
                 (A') (A") (A') (A') (A") (A') (A") (A") (A') (A')
                 (A') (A') (A') (A") (A") (A') (A') (A') (A') (A')
                 (A') (A') (A") (A") (A') (A') (A") (A") (A') (A')
                 (A') (A') (A') (A') (A') (A') (A') (A') (A') (A')
                 (A') (A') (A') (A') (A') (A') (A') (A') (A') (A')
                 (A') (A') (A') (A') (A') (A') (A') (A') (A') (A')
                 (A') (A') (A') (A') (A') (A') (A') (A')
 The electronic state is 1-A'.
 Alpha  occ. eigenvalues --  -11.25703 -11.25614 -11.25593 -11.25544 -11.25489
 Alpha  occ. eigenvalues --  -11.25482 -11.25302 -11.25191 -11.25186 -11.25076
 Alpha  occ. eigenvalues --  -11.24710 -11.24669 -11.24632 -11.24631 -11.24613
 Alpha  occ. eigenvalues --  -11.24613 -11.24608 -11.24567 -11.24566 -11.24562
 Alpha  occ. eigenvalues --  -11.24517 -11.24483 -11.24481 -11.24469 -11.24418
 Alpha  occ. eigenvalues --  -11.24416  -1.19740  -1.18185  -1.15729  -1.12486
 Alpha  occ. eigenvalues --   -1.10131  -1.08210  -1.06078  -1.04659  -1.02331
 Alpha  occ. eigenvalues --   -1.01464  -0.99041  -0.97946  -0.96337  -0.88161
 Alpha  occ. eigenvalues --   -0.86716  -0.85608  -0.84149  -0.82686  -0.82096
 Alpha  occ. eigenvalues --   -0.79647  -0.75983  -0.73335  -0.71433  -0.70648
 Alpha  occ. eigenvalues --   -0.69479  -0.67994  -0.66739  -0.65045  -0.64564
 Alpha  occ. eigenvalues --   -0.62536  -0.60816  -0.60378  -0.60305  -0.59741
 Alpha  occ. eigenvalues --   -0.59422  -0.58011  -0.57249  -0.56841  -0.56066
 Alpha  occ. eigenvalues --   -0.55836  -0.54645  -0.53820  -0.53487  -0.51938
 Alpha  occ. eigenvalues --   -0.50618  -0.50534  -0.49202  -0.47804  -0.47610
 Alpha  occ. eigenvalues --   -0.46401  -0.45972  -0.43904  -0.41519  -0.38824
 Alpha  occ. eigenvalues --   -0.37302  -0.33683  -0.32784  -0.29692  -0.27828
 Alpha  occ. eigenvalues --   -0.25587
 Alpha virt. eigenvalues --    0.05270   0.07395   0.09303   0.11915   0.13019
 Alpha virt. eigenvalues --    0.16017   0.17843   0.18345   0.18453   0.18531
 Alpha virt. eigenvalues --    0.19410   0.19861   0.21172   0.22015   0.22357
 Alpha virt. eigenvalues --    0.23250   0.23717   0.24913   0.25169   0.25565
 Alpha virt. eigenvalues --    0.27124   0.28392   0.29201   0.31319   0.33365
 Alpha virt. eigenvalues --    0.35223   0.35543   0.37531   0.39415   0.40381
 Alpha virt. eigenvalues --    0.41064   0.41190   0.41593   0.42642   0.44179
 Alpha virt. eigenvalues --    0.44792   0.45188   0.45648   0.45939   0.46418
 Alpha virt. eigenvalues --    0.47514   0.48638   0.48971   0.51290   0.52462
 Alpha virt. eigenvalues --    0.54781   0.56580   0.56838   0.58302   0.59077
 Alpha virt. eigenvalues --    0.63725   0.63815   0.64532   0.65099   0.65261
 Alpha virt. eigenvalues --    0.65992   0.66407   0.66530   0.67046   0.67115
 Alpha virt. eigenvalues --    0.67441   0.68041   0.68250   0.68539   0.69609
 Alpha virt. eigenvalues --    0.69655   0.69934   0.70223   0.71016   0.71353
 Alpha virt. eigenvalues --    0.72193   0.72273   0.72483   0.72755   0.72761
 Alpha virt. eigenvalues --    0.73152   0.73259   0.74132   0.74409   0.74467
 Alpha virt. eigenvalues --    0.74951   0.75076   0.75480   0.75792   0.76358
 Alpha virt. eigenvalues --    0.76458   0.77065   0.77161   0.77820   0.78099
 Alpha virt. eigenvalues --    0.78435   0.79412   0.79865   0.80374   0.80877
 Alpha virt. eigenvalues --    0.82210   0.82371   0.83503   0.84414   0.86207
 Alpha virt. eigenvalues --    0.86973   0.87059   0.87880   0.88916   0.89312
 Alpha virt. eigenvalues --    0.89614   0.90007   0.90180   0.91496   0.91798
 Alpha virt. eigenvalues --    0.91931   0.93544   0.93617   0.93885   0.94563
 Alpha virt. eigenvalues --    0.94947   0.96727   0.97232   0.98042   0.99178
 Alpha virt. eigenvalues --    1.00529   1.01625   1.02275   1.02666   1.04581
 Alpha virt. eigenvalues --    1.05796   1.09235   1.09316   1.09715   1.10447
 Alpha virt. eigenvalues --    1.11017   1.11047   1.11272   1.12425   1.13145
 Alpha virt. eigenvalues --    1.13814   1.13901   1.14057   1.14944   1.15208
 Alpha virt. eigenvalues --    1.15431   1.15617   1.16482   1.16976   1.17760
 Alpha virt. eigenvalues --    1.18660   1.18809   1.19001   1.19141   1.19571
 Alpha virt. eigenvalues --    1.20536   1.21252   1.21957   1.22760   1.22953
 Alpha virt. eigenvalues --    1.23667   1.24235   1.24407   1.25059   1.25569
 Alpha virt. eigenvalues --    1.25813   1.27517   1.27551   1.28426   1.28582
 Alpha virt. eigenvalues --    1.28940   1.30245   1.31308   1.32114   1.32502
 Alpha virt. eigenvalues --    1.33032   1.33494   1.33875   1.35527   1.36192
 Alpha virt. eigenvalues --    1.36431   1.37139   1.39265   1.40709   1.43957
 Alpha virt. eigenvalues --    1.46732   1.54065   1.54616   1.55737   1.57751
 Alpha virt. eigenvalues --    1.58566   1.58848   1.60736   1.60902   1.61354
 Alpha virt. eigenvalues --    1.61696   1.61967   1.63375   1.64332   1.64784
 Alpha virt. eigenvalues --    1.65821   1.66341   1.67412   1.68977   1.69403
 Alpha virt. eigenvalues --    1.70417   1.70601   1.71333   1.71568   1.72952
 Alpha virt. eigenvalues --    1.73529   1.73741   1.74152   1.74440   1.74536
 Alpha virt. eigenvalues --    1.76443   1.77256   1.78729   1.79844   1.80962
 Alpha virt. eigenvalues --    1.82425   1.82990   1.84086   1.84973   1.85803
 Alpha virt. eigenvalues --    1.85974   1.86876   1.87259   1.87769   1.88907
 Alpha virt. eigenvalues --    1.90219   1.90330   1.90407   1.90624   1.91011
 Alpha virt. eigenvalues --    1.91039   1.91645   1.92155   1.92526   1.92940
 Alpha virt. eigenvalues --    1.93822   1.94174   1.95035   1.96015   1.96607
 Alpha virt. eigenvalues --    1.97258   1.98088   1.98372   1.99109   1.99656
 Alpha virt. eigenvalues --    2.01485   2.01681   2.01899   2.02514   2.03213
 Alpha virt. eigenvalues --    2.03664   2.03684   2.04737   2.05894   2.06474
 Alpha virt. eigenvalues --    2.06510   2.07458   2.08331   2.08798   2.09655
 Alpha virt. eigenvalues --    2.09712   2.10326   2.10965   2.11954   2.13658
 Alpha virt. eigenvalues --    2.13687   2.14471   2.14885   2.15887   2.16541
 Alpha virt. eigenvalues --    2.17397   2.17646   2.18283   2.18420   2.19148
 Alpha virt. eigenvalues --    2.20382   2.20388   2.21145   2.22499   2.23103
 Alpha virt. eigenvalues --    2.24809   2.25212   2.25266   2.25425   2.26642
 Alpha virt. eigenvalues --    2.28010   2.29751   2.31041   2.32112   2.32816
 Alpha virt. eigenvalues --    2.33750   2.34061   2.35514   2.37666   2.38094
 Alpha virt. eigenvalues --    2.38420   2.38490   2.39369   2.40689   2.43206
 Alpha virt. eigenvalues --    2.45754   2.46981   2.47951   2.49324   2.49639
 Alpha virt. eigenvalues --    2.50645   2.51250   2.53615   2.54516   2.57353
 Alpha virt. eigenvalues --    2.58990   2.60582   2.60764   2.61753   2.63592
 Alpha virt. eigenvalues --    2.65204   2.69446   2.69796   2.71256   2.71575
 Alpha virt. eigenvalues --    2.72268   2.73118   2.74282   2.76845   2.78277
 Alpha virt. eigenvalues --    2.80356   2.81103   2.82284   2.83221   2.84797
 Alpha virt. eigenvalues --    2.93403   2.94014   2.95073   2.97110   2.99693
 Alpha virt. eigenvalues --    3.01163   3.02435   3.03518   3.04935   3.05177
 Alpha virt. eigenvalues --    3.06127   3.07148   3.10735   3.10805   3.13159
 Alpha virt. eigenvalues --    3.17805   3.20633   3.22120   3.23024   3.26500
 Alpha virt. eigenvalues --    3.29806   3.32927   3.62195   3.70944   3.75191
 Alpha virt. eigenvalues --    3.79784   3.92726   3.97294
          Condensed to atoms (all electrons):
 Mulliken charges:
               1
     1  C   -0.011209
     2  C    0.005834
     3  C   -0.029113
     4  C   -0.033690
     5  C   -0.102295
     6  C    0.026894
     7  C    0.031458
     8  C    0.032294
     9  C   -0.080959
    10  C    0.043716
    11  C   -0.027393
    12  C   -0.080499
    13  C    0.056457
    14  C   -0.014727
    15  C   -0.039219
    16  C   -0.035423
    17  C   -0.028454
    18  C    0.004615
    19  C   -0.012814
    20  C    0.029398
    21  C   -0.099475
    22  C    0.058499
    23  C   -0.017578
    24  C   -0.034998
    25  C    0.045978
    26  C   -0.032724
    27  H    0.029643
    28  H    0.027625
    29  H    0.023596
    30  H    0.018821
    31  H    0.019080
    32  H    0.016570
    33  H    0.015888
    34  H    0.014217
    35  H    0.023956
    36  H    0.025149
    37  H    0.027761
    38  H    0.029767
    39  H    0.018580
    40  H    0.016765
    41  H    0.023271
    42  H    0.014735
 Sum of Mulliken charges =  -0.00000
 Mulliken charges with hydrogens summed into heavy atoms:
               1
     1  C    0.018434
     2  C    0.033459
     3  C   -0.005518
     4  C   -0.033690
     5  C   -0.102295
     6  C    0.045715
     7  C    0.050538
     8  C    0.048864
     9  C   -0.080959
    10  C    0.059604
    11  C   -0.027393
    12  C   -0.080499
    13  C    0.070674
    14  C    0.009229
    15  C   -0.039219
    16  C   -0.035423
    17  C   -0.003305
    18  C    0.032377
    19  C    0.016953
    20  C    0.047978
    21  C   -0.099475
    22  C    0.075264
    23  C    0.005693
    24  C   -0.034998
    25  C    0.060713
    26  C   -0.032724
 Electronic spatial extent (au):  <R**2>=          12482.0958
 Charge=              0.0000 electrons
 Dipole moment (field-independent basis, Debye):
    X=              0.0240    Y=             -0.0322    Z=              0.0000  Tot=              0.0402
 Unable to Open any file for archive entry.
 1\1\GINC-NODE01\SP\RMP2-FC\CC-pVDZ\C26H16\XUHJ\11-Oct-2024\0\\#T MP2/c
 c-pVDZ symm=veryloose\\c1ccc2c(c1)ccc1cc3c(ccc4c5ccccc5ccc34)cc12\\0,1
 \C,0,4.250327,5.330304,0.\C,0,2.855674,5.518233,0.\C,0,2.00244,4.42397
 9,0.\C,0,2.499431,3.101058,0.\C,0,3.913961,2.916096,0.\C,0,4.765831,4.
 044359,0.\C,0,4.459782,1.582741,0.\C,0,3.653049,0.487719,0.\C,0,2.2191
 38,0.616291,0.\C,0,1.400741,-0.520622,0.\C,0,0.,-0.444227,0.\C,0,-0.58
 68,0.865574,0.\C,0,-2.013338,0.983034,0.\C,0,-2.81534,-0.12058,0.\C,0,
 -2.274636,-1.451412,0.\C,0,-3.139133,-2.6167,0.\C,0,-4.556749,-2.53091
 5,0.\C,0,-5.349652,-3.6643,0.\C,0,-4.763562,-4.94904,0.\C,0,-3.388002,
 -5.069122,0.\C,0,-2.554322,-3.921861,0.\C,0,-1.132733,-4.043895,0.\C,0
 ,-0.326981,-2.938785,0.\C,0,-0.867291,-1.614904,0.\C,0,0.233749,2.0055
 16,0.\C,0,1.628649,1.926673,0.\H,0,4.921634,6.193992,0.\H,0,2.439801,6
 .530055,0.\H,0,0.925232,4.600291,0.\H,0,5.848418,3.883436,0.\H,0,5.548
 263,1.470505,0.\H,0,4.081883,-0.519064,0.\H,0,1.899248,-1.491214,0.\H,
 0,-2.454598,1.984358,0.\H,0,-3.896487,0.019789,0.\H,0,-5.045197,-1.555
 718,0.\H,0,-6.438933,-3.562727,0.\H,0,-5.397087,-5.840813,0.\H,0,-2.91
 695,-6.057021,0.\H,0,-0.692852,-5.045792,0.\H,0,0.754406,-3.079513,0.\
 H,0,-0.262188,2.978141,0.\\Version=ES64L-G16RevC.01\State=1-A'\HF=-994
 .0299534\MP2=-997.3902359\RMSD=8.375e-09\PG=CS [SG(C26H16)]\\@
 The archive entry for this job was punched.


      HUMANKIND PERIODICALLY GOES THROUGH A SPEEDUP OF ITS AFFAIRS, 
      THEREBY EXPERIENCING THE RACE BETWEEN THE RENEWABLE VITALITY
      OF THE LIVING, AND THE BECKONING VITIATION OF DECADENCE.
      IN THIS PERIODIC RACE, ANY PAUSE BECOMES A LUXURY.
      ONLY THEN CAN ONE REFLECT THAT ALL IS PERMITTED;
      ALL IS POSSIBLE.

                              -- THE APOCRYPHA OF MUAD'DIB
                                 CHILDREN OF DUNE, BY FRANK HERBERT
 Job cpu time:       0 days  0 hours 22 minutes 16.9 seconds.
 Elapsed time:       0 days  0 hours  2 minutes 47.1 seconds.
 File lengths (MBytes):  RWF=  30029 Int=      0 D2E=      0 Chk=     14 Scr=      1
 Normal termination of Gaussian 16 at Fri Oct 11 15:26:43 2024.
