 Entering Gaussian System, Link 0=g16
 Initial command:
 /opt/g16/l1.exe "/tmp/Gau-2524786.inp" -scrdir="/tmp/"
 Entering Link 1 = /opt/g16/l1.exe PID=   2524788.
  
 Copyright (c) 1988-2019, Gaussian, Inc.  All Rights Reserved.
  
 This is part of the Gaussian(R) 16 program.  It is based on
 the Gaussian(R) 09 system (copyright 2009, Gaussian, Inc.),
 the Gaussian(R) 03 system (copyright 2003, Gaussian, Inc.),
 the Gaussian(R) 98 system (copyright 1998, Gaussian, Inc.),
 the Gaussian(R) 94 system (copyright 1995, Gaussian, Inc.),
 the Gaussian 92(TM) system (copyright 1992, Gaussian, Inc.),
 the Gaussian 90(TM) system (copyright 1990, Gaussian, Inc.),
 the Gaussian 88(TM) system (copyright 1988, Gaussian, Inc.),
 the Gaussian 86(TM) system (copyright 1986, Carnegie Mellon
 University), and the Gaussian 82(TM) system (copyright 1983,
 Carnegie Mellon University). Gaussian is a federally registered
 trademark of Gaussian, Inc.
  
 This software contains proprietary and confidential information,
 including trade secrets, belonging to Gaussian, Inc.
  
 This software is provided under written license and may be
 used, copied, transmitted, or stored only in accord with that
 written license.
  
 The following legend is applicable only to US Government
 contracts under FAR:
  
                    RESTRICTED RIGHTS LEGEND
  
 Use, reproduction and disclosure by the US Government is
 subject to restrictions as set forth in subparagraphs (a)
 and (c) of the Commercial Computer Software - Restricted
 Rights clause in FAR 52.227-19.
  
 Gaussian, Inc.
 340 Quinnipiac St., Bldg. 40, Wallingford CT 06492
  
  
 ---------------------------------------------------------------
 Warning -- This program may not be used in any manner that
 competes with the business of Gaussian, Inc. or will provide
 assistance to any competitor of Gaussian, Inc.  The licensee
 of this program is prohibited from giving any competitor of
 Gaussian, Inc. access to this program.  By using this program,
 the user acknowledges that Gaussian, Inc. is engaged in the
 business of creating and licensing software in the field of
 computational chemistry and represents and warrants to the
 licensee that it is not a competitor of Gaussian, Inc. and that
 it will not use this program in any manner prohibited above.
 ---------------------------------------------------------------
  

 Cite this work as:
 Gaussian 16, Revision C.01,
 M. J. Frisch, G. W. Trucks, H. B. Schlegel, G. E. Scuseria, 
 M. A. Robb, J. R. Cheeseman, G. Scalmani, V. Barone, 
 G. A. Petersson, H. Nakatsuji, X. Li, M. Caricato, A. V. Marenich, 
 J. Bloino, B. G. Janesko, R. Gomperts, B. Mennucci, H. P. Hratchian, 
 J. V. Ortiz, A. F. Izmaylov, J. L. Sonnenberg, D. Williams-Young, 
 F. Ding, F. Lipparini, F. Egidi, J. Goings, B. Peng, A. Petrone, 
 T. Henderson, D. Ranasinghe, V. G. Zakrzewski, J. Gao, N. Rega, 
 G. Zheng, W. Liang, M. Hada, M. Ehara, K. Toyota, R. Fukuda, 
 J. Hasegawa, M. Ishida, T. Nakajima, Y. Honda, O. Kitao, H. Nakai, 
 T. Vreven, K. Throssell, J. A. Montgomery, Jr., J. E. Peralta, 
 F. Ogliaro, M. J. Bearpark, J. J. Heyd, E. N. Brothers, K. N. Kudin, 
 V. N. Staroverov, T. A. Keith, R. Kobayashi, J. Normand, 
 K. Raghavachari, A. P. Rendell, J. C. Burant, S. S. Iyengar, 
 J. Tomasi, M. Cossi, J. M. Millam, M. Klene, C. Adamo, R. Cammi, 
 J. W. Ochterski, R. L. Martin, K. Morokuma, O. Farkas, 
 J. B. Foresman, and D. J. Fox, Gaussian, Inc., Wallingford CT, 2019.
 
 ******************************************
 Gaussian 16:  ES64L-G16RevC.01  3-Jul-2019
                11-Oct-2024 
 ******************************************
 %nprocshared=8
 Will use up to    8 processors via shared memory.
 %mem=10400MB
 -----------------------------
 #T MP2/cc-pVDZ symm=veryloose
 -----------------------------
 ----------------------------------------
 c1ccc2cc3cc4c(ccc5ccc6ccccc6c54)cc3cc2c1
 ----------------------------------------
 Symbolic Z-matrix:
 Charge =  0 Multiplicity = 1
 C                     6.56556  -0.50602  -0.00717 
 C                     6.05999  -1.80082  -0.34449 
 C                     4.71     -2.0117   -0.45671 
 C                     3.77552  -0.94663  -0.24051 
 C                     2.39439  -1.13361  -0.34589 
 C                     1.48468  -0.08221  -0.12205 
 C                     0.08257  -0.27593  -0.20072 
 C                    -0.83584   0.74419   0.03484 
 C                    -0.30241   2.08532   0.23412 
 C                    -1.2025    3.20706   0.2162 
 C                    -2.52181   3.02983  -0.05353 
 C                    -3.09297   1.71255  -0.1863 
 C                    -4.48398   1.58639  -0.47783 
 C                    -5.08019   0.35828  -0.56215 
 C                    -4.34839  -0.82012  -0.23322 
 C                    -5.00337  -2.07821  -0.17915 
 C                    -4.34959  -3.20647   0.27168 
 C                    -3.01657  -3.09558   0.72397 
 C                    -2.34435  -1.88977   0.64629 
 C                    -2.95661  -0.72041   0.11115 
 C                    -2.28981   0.56172  -0.0108 
 C                     1.06844   2.28606   0.34646 
 C                     1.99814   1.23081   0.20277 
 C                     3.38969   1.41674   0.30956 
 C                     4.28827   0.36675   0.10132 
 C                     5.70707   0.54098   0.20795 
 H                     7.64609  -0.3572    0.07796 
 H                     6.76094  -2.62378  -0.51273 
 H                     4.32063  -3.00149  -0.71454 
 H                     2.0071   -2.12562  -0.59948 
 H                    -0.26131  -1.26468  -0.49988 
 H                    -0.78875   4.20889   0.36449 
 H                    -3.19268   3.88984  -0.1396 
 H                    -5.06233   2.49832  -0.65394 
 H                    -6.13758   0.26573  -0.82734 
 H                    -6.05539  -2.12875  -0.47667 
 H                    -4.8691   -4.16799   0.31787 
 H                    -2.51426  -3.96497   1.15863 
 H                    -1.34007  -1.82861   1.06152 
 H                     1.44363   3.30172   0.50662 
 H                     3.7756    2.41083   0.55654 
 H                     6.09186   1.53252   0.46586 
 
                    Distance matrix (angstroms):
                    1          2          3          4          5
     1  C    0.000000
     2  C    1.430345   0.000000
     3  C    2.431513   1.370959   0.000000
     4  C    2.834237   2.441158   1.433312   0.000000
     5  C    4.231701   3.725830   2.478992   1.397712   0.000000
     6  C    5.099817   4.892497   3.773279   2.451365   1.408232
     7  C    6.489962   6.170538   4.948900   3.753576   2.470063
     8  C    7.506368   7.360263   6.212325   4.919285   3.755728
     9  C    7.344543   7.477768   6.510540   5.103676   4.239182
    10  C    8.612755   8.839508   7.914918   6.499412   5.665242
    11  C    9.751132   9.852258   8.824887   7.450065   6.448928
    12  C    9.911681   9.805382   8.650413   7.365486   6.183628
    13  C   11.255751  11.075475   9.872990   8.642439   7.397816
    14  C   11.690955  11.349564  10.073518   8.957108   7.625075
    15  C   10.920812  10.455075   9.139167   8.124902   6.751004
    16  C   11.676534  11.068070   9.717565   8.851730   7.459681
    17  C   11.247694  10.522111   9.167018   8.449059   7.082323
    18  C    9.952769   9.230491   7.891055   7.188931   5.854260
    19  C    9.040371   8.463009   7.141108   6.255301   4.900188
    20  C    9.525316   9.092520   7.795309   6.745102   5.386350
    21  C    8.919509   8.684012   7.471192   6.254287   4.992808
    22  C    6.175689   6.488112   5.690068   4.257126   3.732517
    23  C    4.891011   5.097931   4.278203   2.845493   2.459381
    24  C    3.726047   4.232127   3.752940   2.457014   2.815053
    25  C    2.441212   2.834791   2.479164   1.450760   2.457209
    26  C    1.370944   2.431821   2.819947   2.478907   3.752983
    27  H    1.094051   2.185915   3.412313   3.928128   5.325683
    28  H    2.186014   1.094027   2.141053   3.435062   4.616838
    29  H    3.430372   2.145676   1.094424   2.178139   2.708366
    30  H    4.873757   4.073874   2.709070   2.155504   1.094702
    31  H    6.886539   6.345894   5.027309   4.057635   2.663381
    32  H    8.743823   9.139177   8.343051   6.912164   6.259346
    33  H   10.703477  10.864507   9.868192   8.482775   7.516184
    34  H   12.027141  11.928297  10.764647   9.494532   8.299905
    35  H   12.752966  12.380815  11.090276  10.004191   8.659359
    36  H   12.733500  12.120536  10.766047   9.904542   8.509177
    37  H   12.011127  11.202111   9.849307   9.242212   7.899764
    38  H    9.786040   8.969989   7.656017   7.115431   5.863018
    39  H    8.086425   7.532493   6.240344   5.351860   4.050920
    40  H    6.402894   6.933331   6.311075   4.903507   4.615507
    41  H    4.075494   4.875271   4.632342   3.450772   3.909635
    42  H    2.145645   3.430571   3.914353   3.465623   4.630172
                    6          7          8          9         10
     6  C    0.000000
     7  C    1.417618   0.000000
     8  C    2.468277   1.392697   0.000000
     9  C    2.831739   2.431619   1.457012   0.000000
    10  C    4.260826   3.735827   2.496609   1.438324   0.000000
    11  C    5.073600   4.210989   2.841552   2.429103   1.358214
    12  C    4.917340   3.746774   2.466023   2.846564   2.443246
    13  C    6.207711   4.939465   3.779021   4.270979   3.725099
    14  C    6.594332   5.214103   4.303460   5.142355   4.874202
    15  C    5.880615   4.464371   3.854468   5.002991   5.129991
    16  C    6.788376   5.395869   5.037852   6.293225   6.522035
    17  C    6.629834   5.334342   5.292462   6.662131   7.144268
    18  C    5.482466   4.290706   4.469262   5.869270   6.578146
    19  C    4.303386   3.035104   3.096322   4.487843   5.240849
    20  C    4.492965   3.087298   2.578470   3.864190   4.302667
    21  C    3.830641   2.523071   1.466082   2.516166   2.869081
    22  C    2.449792   2.799133   2.469974   1.390019   2.454046
    23  C    1.446782   2.470321   2.880358   2.454324   3.761622
    24  C    2.462152   3.750010   4.287534   3.752912   4.929725
    25  C    2.848084   4.265234   5.138430   4.903626   6.182973
    26  C    4.280869   5.698192   6.548358   6.204802   7.406090
    27  H    6.170788   7.569096   8.553256   8.316793   9.540472
    28  H    5.869503   7.085929   8.327913   8.521989   9.896781
    29  H    4.112882   5.064961   6.417230   6.938878   8.361651
    30  H    2.162492   2.698923   4.089067   4.874495   6.277282
    31  H    2.142301   1.088747   2.156748   3.429709   4.625476
    32  H    4.880451   4.603508   3.480670   2.182452   1.094005
    33  H    6.136387   5.299493   3.934496   3.427773   2.133921
    34  H    7.057292   5.862746   4.627586   4.859628   4.019669
    35  H    7.662730   6.275056   5.392655   6.203772   5.839131
    36  H    7.820916   6.417444   5.979888   7.166609   7.245790
    37  H    7.566881   6.319501   6.362134   7.743738   8.236847
    38  H    5.719050   4.711731   5.124080   6.507920   7.351665
    39  H    3.525613   2.455189   2.815599   4.132814   5.107982
    40  H    3.442077   3.892604   3.458254   2.145355   2.663695
    41  H    3.453125   4.629324   4.931056   4.103674   5.052850
    42  H    4.917220   6.310814   6.985720   6.422304   7.488258
                   11         12         13         14         15
    11  C    0.000000
    12  C    1.441896   0.000000
    13  C    2.472580   1.426813   0.000000
    14  C    3.733786   2.433996   1.367781   0.000000
    15  C    4.265065   2.827139   2.422701   1.425600   0.000000
    16  C    5.680308   4.244940   3.713247   2.467599   1.419400
    17  C    6.506756   5.097605   4.852962   3.733153   2.439175
    18  C    6.194347   4.894140   5.051577   4.223951   2.804942
    19  C    4.972291   3.772320   4.233829   3.741503   2.435957
    20  C    3.778945   2.454868   2.828613   2.475173   1.437220
    21  C    2.479359   1.414321   2.466259   2.851592   2.489318
    22  C    3.688228   4.234393   5.656703   6.507495   6.271081
    23  C    4.871555   5.128633   6.527440   7.172804   6.683927
    24  C    6.138382   6.508329   7.914760   8.580155   8.073172
    25  C    7.313903   7.508444   8.875545   9.391928   8.724252
    26  C    8.600997   8.886439  10.267454  10.816255  10.156751
    27  H   10.717996  10.939893  12.297358  12.762440  12.007450
    28  H   10.878577  10.770788  12.007281  12.210952  11.258266
    29  H    9.145083   8.801288   9.931044   9.984315   8.952203
    30  H    6.883868   6.396327   7.478490   7.510043   6.498518
    31  H    4.873586   4.120748   5.095094   5.085221   4.119832
    32  H    2.137387   3.441587   4.608875   5.839717   6.190256
    33  H    1.094125   2.180071   2.662283   4.026557   4.850585
    34  H    2.664063   2.171283   1.094134   2.142083   3.420342
    35  H    4.616582   3.431308   2.144924   1.094066   2.175603
    36  H    6.267067   4.859611   4.033803   2.672757   2.164627
    37  H    7.579989   6.163569   5.821878   4.615849   3.432646
    38  H    7.099058   5.863282   6.113541   5.313716   3.897617
    39  H    5.122915   4.143620   4.890395   4.626800   3.426871
    40  H    4.014020   4.856575   6.248838   7.236452   7.147336
    41  H    6.357099   6.943828   8.364824   9.159119   8.778502
    42  H    8.758247   9.209714  10.617989  11.280523  10.724852
                   16         17         18         19         20
    16  C    0.000000
    17  C    1.379725   0.000000
    18  C    2.407911   1.412019   0.000000
    19  C    2.790560   2.427961   1.382712   0.000000
    20  C    2.473280   2.854232   2.453690   1.424305   0.000000
    21  C    3.789580   4.303679   3.800511   2.538607   1.450286
    22  C    7.495994   7.715469   6.766973   5.401354   5.029437
    23  C    7.753487   7.745181   6.643542   5.365816   5.325897
    24  C    9.104774   9.015092   7.846843   6.627642   6.699424
    25  C    9.612026   9.349305   8.107784   7.027133   7.326003
    26  C   11.032837  10.732372   9.465346   8.421764   8.755559
    27  H   12.768589  12.330946  11.027623  10.123280  10.608973
    28  H   11.781674  11.153413   9.866696   9.208063   9.921832
    29  H    9.384880   8.728531   7.477473   6.892729   7.670934
    30  H    7.023216   6.506505   5.284845   4.532405   5.207493
    31  H    4.822017   4.591284   3.527251   2.458361   2.816778
    32  H    7.588553   8.226525   7.645114   6.300239   5.390899
    33  H    6.236806   7.201748   7.040805   5.894169   4.623097
    34  H    4.601466   5.823172   6.113550   5.322907   3.921687
    35  H    2.683401   4.057206   4.842078   4.605040   3.460035
    36  H    1.094450   2.152033   3.407449   3.884577   3.454185
    37  H    2.152264   1.093870   2.178724   3.416503   3.947932
    38  H    3.397824   2.174962   1.094116   2.144254   3.438037
    39  H    3.875736   3.402874   2.128338   1.088458   2.178192
    40  H    8.424820   8.716249   7.801671   6.428053   5.974610
    41  H    9.887519   9.882000   8.745414   7.480448   7.438126
    42  H   11.685777  11.468194  10.220049   9.105727   9.331464
                   21         22         23         24         25
    21  C    0.000000
    22  C    3.791943   0.000000
    23  C    4.345090   1.413700   0.000000
    24  C    5.752429   2.478976   1.407975   0.000000
    25  C    6.581928   3.756492   2.449822   1.397603   0.000000
    26  C    7.999899   4.957966   3.772542   2.479417   1.433427
    27  H    9.978701   7.093976   5.868284   4.617080   3.435054
    28  H    9.608087   7.566327   6.168797   5.326085   3.928655
    29  H    7.542515   6.297669   4.914037   4.629912   3.465781
    30  H    5.102129   4.608559   3.450987   3.909755   3.450615
    31  H    2.773037   3.884876   3.438936   4.601625   4.870487
    32  H    3.961809   2.673342   4.081897   5.025792   6.372407
    33  H    3.450827   4.578810   5.842284   7.045968   8.272543
    34  H    3.442517   6.215474   7.224314   8.575243   9.620175
    35  H    3.944580   7.575373   8.257269   9.663661  10.467622
    36  H    4.651367   8.421223   8.752577  10.119198  10.656120
    37  H    5.397300   8.769832   8.736091   9.969799  10.220970
    38  H    4.680689   7.250573   6.947777   8.033702   8.133644
    39  H    2.786670   4.821073   4.608810   5.785182   6.117171
    40  H    4.659816   1.094520   2.165286   2.716464   4.107356
    41  H    6.366345   2.718170   2.162632   1.094604   2.156005
    42  H    8.451154   5.081027   4.113243   2.709156   2.178265
                   26         27         28         29         30
    26  C    0.000000
    27  H    2.140895   0.000000
    28  H    3.412579   2.503954   0.000000
    29  H    3.914368   4.321926   2.477603   0.000000
    30  H    4.631683   5.948488   4.780658   2.476449   0.000000
    31  H    6.275583   7.980250   7.152569   4.904763   2.428332
    32  H    7.461489   9.595725  10.220212   8.902788   6.990855
    33  H    9.515318  11.643185  11.901303  10.211306   7.964607
    34  H   10.979707  13.045828  12.885861  10.876183   8.447516
    35  H   11.892999  13.827414  13.221956  10.957263   8.491544
    36  H   12.081043  13.826663  12.825934  10.415370   8.063422
    37  H   11.577647  13.084717  11.761478   9.320822   7.231525
    38  H    9.423253  10.835897   9.519535   7.152113   5.188146
    39  H    7.483694   9.158794   8.290767   6.047598   3.748418
    40  H    5.088010   7.214017   8.026480   7.035535   5.567490
    41  H    2.710799   4.782440   5.950029   5.586223   5.004336
    42  H    1.094408   2.477328   4.322048   5.008773   5.585891
                   31         32         33         34         35
    31  H    0.000000
    32  H    5.566445   0.000000
    33  H    5.940693   2.476848   0.000000
    34  H    6.101940   4.714520   2.386724   0.000000
    35  H    6.081120   6.751220   4.720127   2.484087   0.000000
    36  H    5.858203   8.283159   6.673241   4.735754   2.421419
    37  H    5.507243   9.317915   8.243074   6.739539   4.751675
    38  H    3.888196   8.391671   7.990232   7.179988   5.913665
    39  H    1.979825   6.102561   6.129893   5.959895   5.565090
    40  H    4.977128   2.413852   4.717927   6.657310   8.274745
    41  H    5.560758   4.909506   7.157449   8.920870  10.236594
    42  H    7.008541   7.383498   9.598240  11.251779  12.362700
                   36         37         38         39         40
    36  H    0.000000
    37  H    2.489388   0.000000
    38  H    4.311093   2.508661   0.000000
    39  H    4.968940   4.298812   2.439715   0.000000
    40  H    9.310857   9.781752   8.300290   5.863203   0.000000
    41  H   10.877670  10.865946   8.976403   6.663180   2.496855
    42  H   12.721982  12.355579  10.235605   8.178355   4.973709
                   41         42
    41  H    0.000000
    42  H    2.478848   0.000000
 Framework group  C1[X(C26H16)]
 Deg. of freedom   120
                         Standard orientation:                         
 ---------------------------------------------------------------------
 Center     Atomic      Atomic             Coordinates (Angstroms)
 Number     Number       Type             X           Y           Z
 ---------------------------------------------------------------------
      1          6           0        6.565560   -0.506018   -0.007169
      2          6           0        6.059990   -1.800816   -0.344489
      3          6           0        4.710004   -2.011700   -0.456713
      4          6           0        3.775521   -0.946626   -0.240512
      5          6           0        2.394387   -1.133614   -0.345888
      6          6           0        1.484682   -0.082210   -0.122050
      7          6           0        0.082567   -0.275927   -0.200720
      8          6           0       -0.835844    0.744189    0.034843
      9          6           0       -0.302414    2.085318    0.234117
     10          6           0       -1.202497    3.207060    0.216196
     11          6           0       -2.521807    3.029826   -0.053533
     12          6           0       -3.092973    1.712554   -0.186303
     13          6           0       -4.483976    1.586386   -0.477830
     14          6           0       -5.080187    0.358279   -0.562146
     15          6           0       -4.348393   -0.820119   -0.233224
     16          6           0       -5.003368   -2.078205   -0.179147
     17          6           0       -4.349588   -3.206465    0.271676
     18          6           0       -3.016570   -3.095583    0.723966
     19          6           0       -2.344352   -1.889771    0.646293
     20          6           0       -2.956608   -0.720408    0.111150
     21          6           0       -2.289810    0.561715   -0.010796
     22          6           0        1.068437    2.286064    0.346460
     23          6           0        1.998139    1.230813    0.202773
     24          6           0        3.389693    1.416735    0.309560
     25          6           0        4.288274    0.366745    0.101315
     26          6           0        5.707071    0.540981    0.207951
     27          1           0        7.646094   -0.357198    0.077962
     28          1           0        6.760939   -2.623775   -0.512728
     29          1           0        4.320627   -3.001486   -0.714535
     30          1           0        2.007098   -2.125617   -0.599481
     31          1           0       -0.261306   -1.264676   -0.499880
     32          1           0       -0.788753    4.208894    0.364492
     33          1           0       -3.192682    3.889843   -0.139601
     34          1           0       -5.062327    2.498320   -0.653940
     35          1           0       -6.137584    0.265733   -0.827338
     36          1           0       -6.055388   -2.128749   -0.476669
     37          1           0       -4.869103   -4.167986    0.317872
     38          1           0       -2.514259   -3.964974    1.158631
     39          1           0       -1.340066   -1.828611    1.061517
     40          1           0        1.443626    3.301720    0.506618
     41          1           0        3.775603    2.410834    0.556538
     42          1           0        6.091857    1.532521    0.465860
 ---------------------------------------------------------------------
 Rotational constants (GHZ):           0.4599119           0.1115231           0.0909963
   444 basis functions,   970 primitive gaussians,   470 cartesian basis functions
    86 alpha electrons       86 beta electrons
       nuclear repulsion energy      1970.5965972132 Hartrees.
 NAtoms=   42 NActive=   42 NUniq=   42 SFac= 1.00D+00 NAtFMM=   60 NAOKFM=F Big=F
 ExpMin= 1.22D-01 ExpMax= 6.67D+03 ExpMxC= 2.28D+02 IAcc=3 IRadAn=         5 AccDes= 0.00D+00
 Harris functional with IExCor=  205 and IRadAn=       5 diagonalized for initial guess.
 HarFok:  IExCor=  205 AccDes= 0.00D+00 IRadAn=         5 IDoV= 1 UseB2=F ITyADJ=14
 ICtDFT=  3500011 ScaDFX=  1.000000  1.000000  1.000000  1.000000
 FoFCou: FMM=F IPFlag=           0 FMFlag=      100000 FMFlg1=           0
         NFxFlg=           0 DoJE=T BraDBF=F KetDBF=T FulRan=T
         wScrn=  0.000000 ICntrl=       500 IOpCl=  0 I1Cent=   200000004 NGrid=           0
         NMat0=    1 NMatS0=      1 NMatT0=    0 NMatD0=    1 NMtDS0=    0 NMtDT0=    0
 Petite list used in FoFCou.
 Integral accuracy reduced to 1.0D-05 until final iterations.
 Initial convergence to 1.0D-05 achieved.  Increase integral accuracy.
 SCF Done:  E(RHF) =  -994.001802047     A.U. after   16 cycles
            NFock= 16  Conv=0.90D-08     -V/T= 2.0012
 ExpMin= 1.22D-01 ExpMax= 6.67D+03 ExpMxC= 2.28D+02 IAcc=3 IRadAn=         5 AccDes= 0.00D+00
 HarFok:  IExCor=  205 AccDes= 0.00D+00 IRadAn=         5 IDoV=-2 UseB2=F ITyADJ=14
 ICtDFT= 12500011 ScaDFX=  1.000000  1.000000  1.000000  1.000000
 GSVD:  LWork=        -884 too small for GESVD, short by        3770 words or        3770 for optimal perf.
 NROrb=    418 NOA=    60 NOB=    60 NVA=   358 NVB=   358

 **** Warning!!: The largest alpha MO coefficient is  0.15538436D+02

 Estimated scratch disk usage=  5051810304 words.
 Actual    scratch disk usage=  4040854016 words.
 ANorm=    0.1524443170D+01
 E2 =    -0.3368211825D+01 EUMP2 =    -0.99737001387224D+03

 **********************************************************************

            Population analysis using the SCF Density.

 **********************************************************************

 Orbital symmetries:
       Occupied  (A) (A) (A) (A) (A) (A) (A) (A) (A) (A) (A) (A)
                 (A) (A) (A) (A) (A) (A) (A) (A) (A) (A) (A) (A)
                 (A) (A) (A) (A) (A) (A) (A) (A) (A) (A) (A) (A)
                 (A) (A) (A) (A) (A) (A) (A) (A) (A) (A) (A) (A)
                 (A) (A) (A) (A) (A) (A) (A) (A) (A) (A) (A) (A)
                 (A) (A) (A) (A) (A) (A) (A) (A) (A) (A) (A) (A)
                 (A) (A) (A) (A) (A) (A) (A) (A) (A) (A) (A) (A)
                 (A) (A)
       Virtual   (A) (A) (A) (A) (A) (A) (A) (A) (A) (A) (A) (A)
                 (A) (A) (A) (A) (A) (A) (A) (A) (A) (A) (A) (A)
                 (A) (A) (A) (A) (A) (A) (A) (A) (A) (A) (A) (A)
                 (A) (A) (A) (A) (A) (A) (A) (A) (A) (A) (A) (A)
                 (A) (A) (A) (A) (A) (A) (A) (A) (A) (A) (A) (A)
                 (A) (A) (A) (A) (A) (A) (A) (A) (A) (A) (A) (A)
                 (A) (A) (A) (A) (A) (A) (A) (A) (A) (A) (A) (A)
                 (A) (A) (A) (A) (A) (A) (A) (A) (A) (A) (A) (A)
                 (A) (A) (A) (A) (A) (A) (A) (A) (A) (A) (A) (A)
                 (A) (A) (A) (A) (A) (A) (A) (A) (A) (A) (A) (A)
                 (A) (A) (A) (A) (A) (A) (A) (A) (A) (A) (A) (A)
                 (A) (A) (A) (A) (A) (A) (A) (A) (A) (A) (A) (A)
                 (A) (A) (A) (A) (A) (A) (A) (A) (A) (A) (A) (A)
                 (A) (A) (A) (A) (A) (A) (A) (A) (A) (A) (A) (A)
                 (A) (A) (A) (A) (A) (A) (A) (A) (A) (A) (A) (A)
                 (A) (A) (A) (A) (A) (A) (A) (A) (A) (A) (A) (A)
                 (A) (A) (A) (A) (A) (A) (A) (A) (A) (A) (A) (A)
                 (A) (A) (A) (A) (A) (A) (A) (A) (A) (A) (A) (A)
                 (A) (A) (A) (A) (A) (A) (A) (A) (A) (A) (A) (A)
                 (A) (A) (A) (A) (A) (A) (A) (A) (A) (A) (A) (A)
                 (A) (A) (A) (A) (A) (A) (A) (A) (A) (A) (A) (A)
                 (A) (A) (A) (A) (A) (A) (A) (A) (A) (A) (A) (A)
                 (A) (A) (A) (A) (A) (A) (A) (A) (A) (A) (A) (A)
                 (A) (A) (A) (A) (A) (A) (A) (A) (A) (A) (A) (A)
                 (A) (A) (A) (A) (A) (A) (A) (A) (A) (A) (A) (A)
                 (A) (A) (A) (A) (A) (A) (A) (A) (A) (A) (A) (A)
                 (A) (A) (A) (A) (A) (A) (A) (A) (A) (A) (A) (A)
                 (A) (A) (A) (A) (A) (A) (A) (A) (A) (A) (A) (A)
                 (A) (A) (A) (A) (A) (A) (A) (A) (A) (A) (A) (A)
                 (A) (A) (A) (A) (A) (A) (A) (A) (A) (A)
 The electronic state is 1-A.
 Alpha  occ. eigenvalues --  -11.25977 -11.25886 -11.25725 -11.25437 -11.25393
 Alpha  occ. eigenvalues --  -11.25297 -11.25252 -11.25200 -11.25161 -11.25149
 Alpha  occ. eigenvalues --  -11.24733 -11.24726 -11.24664 -11.24662 -11.24635
 Alpha  occ. eigenvalues --  -11.24622 -11.24592 -11.24570 -11.24537 -11.24521
 Alpha  occ. eigenvalues --  -11.24517 -11.24487 -11.24469 -11.24431 -11.24330
 Alpha  occ. eigenvalues --  -11.24204  -1.19658  -1.18070  -1.15588  -1.12914
 Alpha  occ. eigenvalues --   -1.09733  -1.07557  -1.06097  -1.05382  -1.02159
 Alpha  occ. eigenvalues --   -1.01626  -0.99058  -0.98471  -0.95013  -0.89849
 Alpha  occ. eigenvalues --   -0.85910  -0.85176  -0.83966  -0.81538  -0.81444
 Alpha  occ. eigenvalues --   -0.79912  -0.77812  -0.73428  -0.71166  -0.69746
 Alpha  occ. eigenvalues --   -0.69012  -0.68469  -0.66064  -0.64885  -0.63969
 Alpha  occ. eigenvalues --   -0.62678  -0.61615  -0.60926  -0.60529  -0.59554
 Alpha  occ. eigenvalues --   -0.58483  -0.57900  -0.57446  -0.57081  -0.56148
 Alpha  occ. eigenvalues --   -0.55286  -0.55101  -0.53705  -0.52475  -0.51784
 Alpha  occ. eigenvalues --   -0.50642  -0.50581  -0.49378  -0.48002  -0.47333
 Alpha  occ. eigenvalues --   -0.47141  -0.45812  -0.42829  -0.41377  -0.38732
 Alpha  occ. eigenvalues --   -0.38065  -0.34371  -0.32160  -0.29533  -0.28177
 Alpha  occ. eigenvalues --   -0.23531
 Alpha virt. eigenvalues --    0.03002   0.08110   0.09036   0.12017   0.13880
 Alpha virt. eigenvalues --    0.17599   0.18161   0.18311   0.18555   0.18701
 Alpha virt. eigenvalues --    0.19372   0.19632   0.19991   0.21443   0.21686
 Alpha virt. eigenvalues --    0.23350   0.23680   0.24223   0.25055   0.25287
 Alpha virt. eigenvalues --    0.26637   0.27711   0.28805   0.29886   0.30796
 Alpha virt. eigenvalues --    0.32106   0.34779   0.35664   0.38299   0.39082
 Alpha virt. eigenvalues --    0.40591   0.41305   0.42045   0.42660   0.43258
 Alpha virt. eigenvalues --    0.44627   0.44975   0.45536   0.45814   0.46518
 Alpha virt. eigenvalues --    0.47510   0.48571   0.49291   0.49974   0.50766
 Alpha virt. eigenvalues --    0.51547   0.53486   0.54810   0.58866   0.60014
 Alpha virt. eigenvalues --    0.61485   0.62188   0.62947   0.64184   0.65032
 Alpha virt. eigenvalues --    0.65488   0.65844   0.66076   0.66600   0.66860
 Alpha virt. eigenvalues --    0.67166   0.67697   0.67790   0.68139   0.68744
 Alpha virt. eigenvalues --    0.69289   0.69631   0.69953   0.70678   0.71064
 Alpha virt. eigenvalues --    0.71209   0.71896   0.72198   0.72771   0.73001
 Alpha virt. eigenvalues --    0.73293   0.73691   0.73761   0.74078   0.74275
 Alpha virt. eigenvalues --    0.74657   0.74920   0.75575   0.75945   0.76441
 Alpha virt. eigenvalues --    0.76798   0.77197   0.77278   0.77767   0.78205
 Alpha virt. eigenvalues --    0.78672   0.79039   0.79920   0.80298   0.82279
 Alpha virt. eigenvalues --    0.82492   0.82602   0.83845   0.84110   0.86356
 Alpha virt. eigenvalues --    0.86833   0.87304   0.87458   0.88621   0.89197
 Alpha virt. eigenvalues --    0.89681   0.89713   0.90433   0.90959   0.91529
 Alpha virt. eigenvalues --    0.92404   0.92637   0.93191   0.93473   0.94679
 Alpha virt. eigenvalues --    0.95692   0.96658   0.97005   0.97484   0.98615
 Alpha virt. eigenvalues --    0.99464   1.00137   1.00578   1.02127   1.03478
 Alpha virt. eigenvalues --    1.03564   1.06644   1.08248   1.08880   1.09640
 Alpha virt. eigenvalues --    1.10166   1.10837   1.11115   1.11543   1.11998
 Alpha virt. eigenvalues --    1.12369   1.12700   1.12960   1.13222   1.13773
 Alpha virt. eigenvalues --    1.14150   1.14958   1.15594   1.16582   1.16846
 Alpha virt. eigenvalues --    1.17559   1.17891   1.18276   1.19341   1.19532
 Alpha virt. eigenvalues --    1.19831   1.20176   1.20860   1.21202   1.22157
 Alpha virt. eigenvalues --    1.22645   1.23004   1.24489   1.25113   1.25684
 Alpha virt. eigenvalues --    1.26045   1.26617   1.27958   1.28662   1.29082
 Alpha virt. eigenvalues --    1.29937   1.30270   1.30828   1.31364   1.31841
 Alpha virt. eigenvalues --    1.32448   1.33402   1.33902   1.34070   1.36450
 Alpha virt. eigenvalues --    1.36958   1.38331   1.39729   1.40665   1.42516
 Alpha virt. eigenvalues --    1.46396   1.47415   1.51443   1.53283   1.53970
 Alpha virt. eigenvalues --    1.56116   1.56586   1.58602   1.58952   1.60703
 Alpha virt. eigenvalues --    1.61909   1.62876   1.63454   1.64091   1.65268
 Alpha virt. eigenvalues --    1.65552   1.66498   1.67323   1.68190   1.68403
 Alpha virt. eigenvalues --    1.69342   1.69954   1.70636   1.70720   1.71701
 Alpha virt. eigenvalues --    1.72419   1.73315   1.74285   1.74772   1.75824
 Alpha virt. eigenvalues --    1.76707   1.77072   1.77997   1.78876   1.79436
 Alpha virt. eigenvalues --    1.80144   1.81363   1.82365   1.83596   1.84151
 Alpha virt. eigenvalues --    1.84588   1.85636   1.86382   1.87290   1.88493
 Alpha virt. eigenvalues --    1.88808   1.89450   1.90019   1.90166   1.90486
 Alpha virt. eigenvalues --    1.90843   1.91472   1.91988   1.92387   1.92766
 Alpha virt. eigenvalues --    1.93078   1.93687   1.94221   1.94713   1.95746
 Alpha virt. eigenvalues --    1.96842   1.97294   1.97799   1.98471   1.99216
 Alpha virt. eigenvalues --    1.99677   2.00446   2.00889   2.01280   2.02423
 Alpha virt. eigenvalues --    2.02628   2.03279   2.03972   2.04853   2.05375
 Alpha virt. eigenvalues --    2.06281   2.06704   2.06823   2.08012   2.08902
 Alpha virt. eigenvalues --    2.09476   2.09916   2.10395   2.10847   2.12308
 Alpha virt. eigenvalues --    2.12887   2.13680   2.14384   2.15026   2.15990
 Alpha virt. eigenvalues --    2.16349   2.17078   2.17755   2.17890   2.18474
 Alpha virt. eigenvalues --    2.18816   2.20268   2.20838   2.22326   2.23583
 Alpha virt. eigenvalues --    2.24644   2.25552   2.26305   2.27320   2.27783
 Alpha virt. eigenvalues --    2.28099   2.30962   2.31635   2.32390   2.32971
 Alpha virt. eigenvalues --    2.33319   2.33895   2.34716   2.35601   2.36344
 Alpha virt. eigenvalues --    2.36895   2.39359   2.40829   2.42072   2.43116
 Alpha virt. eigenvalues --    2.45706   2.46332   2.48479   2.49576   2.50283
 Alpha virt. eigenvalues --    2.51377   2.52675   2.53057   2.53824   2.55208
 Alpha virt. eigenvalues --    2.56218   2.57367   2.59351   2.61117   2.61736
 Alpha virt. eigenvalues --    2.62880   2.63902   2.65351   2.68348   2.69321
 Alpha virt. eigenvalues --    2.70785   2.71528   2.73187   2.75798   2.76557
 Alpha virt. eigenvalues --    2.77696   2.79888   2.81681   2.83849   2.88772
 Alpha virt. eigenvalues --    2.90549   2.92964   2.93223   2.96103   2.96693
 Alpha virt. eigenvalues --    2.99478   3.00110   3.01918   3.03083   3.05327
 Alpha virt. eigenvalues --    3.05936   3.06983   3.08842   3.10807   3.12831
 Alpha virt. eigenvalues --    3.15099   3.16120   3.20538   3.22161   3.23901
 Alpha virt. eigenvalues --    3.29699   3.32133   3.58934   3.69900   3.73563
 Alpha virt. eigenvalues --    3.82124   3.90924   3.91505
          Condensed to atoms (all electrons):
 Mulliken charges:
               1
     1  C   -0.018847
     2  C   -0.020055
     3  C    0.026403
     4  C   -0.095622
     5  C    0.068285
     6  C   -0.069734
     7  C    0.022220
     8  C   -0.084624
     9  C   -0.082286
    10  C    0.030246
    11  C    0.032015
    12  C   -0.096210
    13  C    0.031208
    14  C    0.028815
    15  C   -0.091387
    16  C    0.030375
    17  C   -0.019281
    18  C   -0.003364
    19  C   -0.035412
    20  C   -0.086108
    21  C    0.075843
    22  C    0.078906
    23  C   -0.084448
    24  C    0.068858
    25  C   -0.093877
    26  C    0.026181
    27  H    0.031252
    28  H    0.031088
    29  H    0.017648
    30  H    0.011362
    31  H    0.032970
    32  H    0.018346
    33  H    0.020474
    34  H    0.020091
    35  H    0.019927
    36  H    0.019425
    37  H    0.029581
    38  H    0.029108
    39  H    0.042617
    40  H    0.010407
    41  H    0.010172
    42  H    0.017431
 Sum of Mulliken charges =  -0.00000
 Mulliken charges with hydrogens summed into heavy atoms:
               1
     1  C    0.012405
     2  C    0.011033
     3  C    0.044051
     4  C   -0.095622
     5  C    0.079647
     6  C   -0.069734
     7  C    0.055190
     8  C   -0.084624
     9  C   -0.082286
    10  C    0.048592
    11  C    0.052490
    12  C   -0.096210
    13  C    0.051299
    14  C    0.048743
    15  C   -0.091387
    16  C    0.049799
    17  C    0.010300
    18  C    0.025744
    19  C    0.007205
    20  C   -0.086108
    21  C    0.075843
    22  C    0.089313
    23  C   -0.084448
    24  C    0.079029
    25  C   -0.093877
    26  C    0.043612
 Electronic spatial extent (au):  <R**2>=          11096.8888
 Charge=             -0.0000 electrons
 Dipole moment (field-independent basis, Debye):
    X=             -0.0534    Y=             -0.0166    Z=             -0.0127  Tot=              0.0574
 Unable to Open any file for archive entry.
 1\1\GINC-NODE01\SP\RMP2-FC\CC-pVDZ\C26H16\XUHJ\11-Oct-2024\0\\#T MP2/c
 c-pVDZ symm=veryloose\\c1ccc2cc3cc4c(ccc5ccc6ccccc6c54)cc3cc2c1\\0,1\C
 ,0,6.56556,-0.506018,-0.007169\C,0,6.05999,-1.800816,-0.344489\C,0,4.7
 10004,-2.0117,-0.456713\C,0,3.775521,-0.946626,-0.240512\C,0,2.394387,
 -1.133614,-0.345888\C,0,1.484682,-0.08221,-0.12205\C,0,0.082567,-0.275
 927,-0.20072\C,0,-0.835844,0.744189,0.034843\C,0,-0.302414,2.085318,0.
 234117\C,0,-1.202497,3.20706,0.216196\C,0,-2.521807,3.029826,-0.053533
 \C,0,-3.092973,1.712554,-0.186303\C,0,-4.483976,1.586386,-0.47783\C,0,
 -5.080187,0.358279,-0.562146\C,0,-4.348393,-0.820119,-0.233224\C,0,-5.
 003368,-2.078205,-0.179147\C,0,-4.349588,-3.206465,0.271676\C,0,-3.016
 57,-3.095583,0.723966\C,0,-2.344352,-1.889771,0.646293\C,0,-2.956608,-
 0.720408,0.11115\C,0,-2.28981,0.561715,-0.010796\C,0,1.068437,2.286064
 ,0.34646\C,0,1.998139,1.230813,0.202773\C,0,3.389693,1.416735,0.30956\
 C,0,4.288274,0.366745,0.101315\C,0,5.707071,0.540981,0.207951\H,0,7.64
 6094,-0.357198,0.077962\H,0,6.760939,-2.623775,-0.512728\H,0,4.320627,
 -3.001486,-0.714535\H,0,2.007098,-2.125617,-0.599481\H,0,-0.261306,-1.
 264676,-0.49988\H,0,-0.788753,4.208894,0.364492\H,0,-3.192682,3.889843
 ,-0.139601\H,0,-5.062327,2.49832,-0.65394\H,0,-6.137584,0.265733,-0.82
 7338\H,0,-6.055388,-2.128749,-0.476669\H,0,-4.869103,-4.167986,0.31787
 2\H,0,-2.514259,-3.964974,1.158631\H,0,-1.340066,-1.828611,1.061517\H,
 0,1.443626,3.30172,0.506618\H,0,3.775603,2.410834,0.556538\H,0,6.09185
 7,1.532521,0.46586\\Version=ES64L-G16RevC.01\State=1-A\HF=-994.001802\
 MP2=-997.3700139\RMSD=8.971e-09\PG=C01 [X(C26H16)]\\@
 The archive entry for this job was punched.


 IT IS WELL TO REMEMBER THAT MAN IS A PART OF NATURE AND THAT HIS WORKS,
 WHATEVER THEY MAY BE, ARE NO MORE "UNNATURAL" THAN 
 THE FLIGHT OF AN EAGLE OR THE PASSAGE OF A TORNADO.

                                    -- CHARLES MCCARRY IN "THE GREAT SOUTHWEST"
 Job cpu time:       0 days  0 hours 29 minutes 23.5 seconds.
 Elapsed time:       0 days  0 hours  3 minutes 40.5 seconds.
 File lengths (MBytes):  RWF=  30940 Int=      0 D2E=      0 Chk=     14 Scr=      1
 Normal termination of Gaussian 16 at Fri Oct 11 15:30:26 2024.
