 Entering Gaussian System, Link 0=g16
 Initial command:
 /opt/g16/l1.exe "/tmp/Gau-2530100.inp" -scrdir="/tmp/"
 Entering Link 1 = /opt/g16/l1.exe PID=   2530102.
  
 Copyright (c) 1988-2019, Gaussian, Inc.  All Rights Reserved.
  
 This is part of the Gaussian(R) 16 program.  It is based on
 the Gaussian(R) 09 system (copyright 2009, Gaussian, Inc.),
 the Gaussian(R) 03 system (copyright 2003, Gaussian, Inc.),
 the Gaussian(R) 98 system (copyright 1998, Gaussian, Inc.),
 the Gaussian(R) 94 system (copyright 1995, Gaussian, Inc.),
 the Gaussian 92(TM) system (copyright 1992, Gaussian, Inc.),
 the Gaussian 90(TM) system (copyright 1990, Gaussian, Inc.),
 the Gaussian 88(TM) system (copyright 1988, Gaussian, Inc.),
 the Gaussian 86(TM) system (copyright 1986, Carnegie Mellon
 University), and the Gaussian 82(TM) system (copyright 1983,
 Carnegie Mellon University). Gaussian is a federally registered
 trademark of Gaussian, Inc.
  
 This software contains proprietary and confidential information,
 including trade secrets, belonging to Gaussian, Inc.
  
 This software is provided under written license and may be
 used, copied, transmitted, or stored only in accord with that
 written license.
  
 The following legend is applicable only to US Government
 contracts under FAR:
  
                    RESTRICTED RIGHTS LEGEND
  
 Use, reproduction and disclosure by the US Government is
 subject to restrictions as set forth in subparagraphs (a)
 and (c) of the Commercial Computer Software - Restricted
 Rights clause in FAR 52.227-19.
  
 Gaussian, Inc.
 340 Quinnipiac St., Bldg. 40, Wallingford CT 06492
  
  
 ---------------------------------------------------------------
 Warning -- This program may not be used in any manner that
 competes with the business of Gaussian, Inc. or will provide
 assistance to any competitor of Gaussian, Inc.  The licensee
 of this program is prohibited from giving any competitor of
 Gaussian, Inc. access to this program.  By using this program,
 the user acknowledges that Gaussian, Inc. is engaged in the
 business of creating and licensing software in the field of
 computational chemistry and represents and warrants to the
 licensee that it is not a competitor of Gaussian, Inc. and that
 it will not use this program in any manner prohibited above.
 ---------------------------------------------------------------
  

 Cite this work as:
 Gaussian 16, Revision C.01,
 M. J. Frisch, G. W. Trucks, H. B. Schlegel, G. E. Scuseria, 
 M. A. Robb, J. R. Cheeseman, G. Scalmani, V. Barone, 
 G. A. Petersson, H. Nakatsuji, X. Li, M. Caricato, A. V. Marenich, 
 J. Bloino, B. G. Janesko, R. Gomperts, B. Mennucci, H. P. Hratchian, 
 J. V. Ortiz, A. F. Izmaylov, J. L. Sonnenberg, D. Williams-Young, 
 F. Ding, F. Lipparini, F. Egidi, J. Goings, B. Peng, A. Petrone, 
 T. Henderson, D. Ranasinghe, V. G. Zakrzewski, J. Gao, N. Rega, 
 G. Zheng, W. Liang, M. Hada, M. Ehara, K. Toyota, R. Fukuda, 
 J. Hasegawa, M. Ishida, T. Nakajima, Y. Honda, O. Kitao, H. Nakai, 
 T. Vreven, K. Throssell, J. A. Montgomery, Jr., J. E. Peralta, 
 F. Ogliaro, M. J. Bearpark, J. J. Heyd, E. N. Brothers, K. N. Kudin, 
 V. N. Staroverov, T. A. Keith, R. Kobayashi, J. Normand, 
 K. Raghavachari, A. P. Rendell, J. C. Burant, S. S. Iyengar, 
 J. Tomasi, M. Cossi, J. M. Millam, M. Klene, C. Adamo, R. Cammi, 
 J. W. Ochterski, R. L. Martin, K. Morokuma, O. Farkas, 
 J. B. Foresman, and D. J. Fox, Gaussian, Inc., Wallingford CT, 2019.
 
 ******************************************
 Gaussian 16:  ES64L-G16RevC.01  3-Jul-2019
                11-Oct-2024 
 ******************************************
 %nprocshared=8
 Will use up to    8 processors via shared memory.
 %mem=10400MB
 -----------------------------
 #T MP2/cc-pVDZ symm=veryloose
 -----------------------------
 ----------------------------------------
 c1ccc2cc3c(cc2c1)c1ccccc1c1ccc2ccccc2c13
 ----------------------------------------
 Symbolic Z-matrix:
 Charge =  0 Multiplicity = 1
 C                    -5.33026  -1.31406  -0.14351 
 C                    -4.63656  -2.51963  -0.44404 
 C                    -3.26103  -2.53564  -0.49691 
 C                    -2.50913  -1.35059  -0.24421 
 C                    -1.10022  -1.33109  -0.27217 
 C                    -0.3539   -0.17956  -0.01136 
 C                    -1.06374   1.06346   0.17206 
 C                    -2.45581   1.04515   0.22102 
 C                    -3.20867  -0.13316   0.04529 
 C                    -4.63346  -0.15011   0.09147 
 C                    -0.31018   2.32032   0.20923 
 C                    -0.9285    3.5521    0.51483 
 C                    -0.23497   4.75174   0.44958 
 C                     1.11581   4.75036   0.07205 
 C                     1.75051   3.54882  -0.20759 
 C                     1.0692    2.31214  -0.13365 
 C                     1.77544   1.03654  -0.30472 
 C                     3.15277   1.00618  -0.68273 
 C                     3.86191  -0.16388  -0.72461 
 C                     3.28033  -1.37823  -0.26411 
 C                     4.05769  -2.55936  -0.14117 
 C                     3.53267  -3.70096   0.42867 
 C                     2.21142  -3.67945   0.92831 
 C                     1.4221   -2.55354   0.78387 
 C                     1.9033   -1.3805    0.13487 
 C                     1.11232  -0.17891  -0.04739 
 H                    -6.42362  -1.31657  -0.10466 
 H                    -5.20417  -3.43552  -0.63341 
 H                    -2.72312  -3.46079  -0.72634 
 H                    -0.59277  -2.25351  -0.55177 
 H                    -3.0103    1.97564   0.35187 
 H                    -5.16432   0.78087   0.31381 
 H                    -1.97667   3.57103   0.81643 
 H                    -0.74132   5.69011   0.69356 
 H                     1.67509   5.68855   0.01278 
 H                     2.80957   3.57329  -0.46458 
 H                     3.65185   1.93002  -0.97503 
 H                     4.90391  -0.16806  -1.05804 
 H                     5.09742  -2.53601  -0.48207 
 H                     4.14417  -4.60237   0.52944 
 H                     1.81236  -4.55388   1.45095 
 H                     0.42765  -2.55171   1.2287 
 
                    Distance matrix (angstroms):
                    1          2          3          4          5
     1  C    0.000000
     2  C    1.423009   0.000000
     3  C    2.428762   1.376637   0.000000
     4  C    2.823167   2.435681   1.426027   0.000000
     5  C    4.232032   3.734680   2.484056   1.409319   0.000000
     6  C    5.105756   4.899418   3.773363   2.463847   1.396796
     7  C    4.894423   5.097366   4.269558   2.844305   2.435685
     8  C    3.736473   4.231506   3.739768   2.441077   2.779817
     9  C    2.435425   2.823745   2.463461   1.433639   2.445692
    10  C    1.376779   2.429280   2.814337   2.463047   3.743087
    11  C    6.207607   6.524528   5.725952   4.303092   3.766795
    12  C    6.594570   7.178786   6.597335   5.206809   4.949180
    13  C    7.944023   8.546649   7.947241   6.549158   6.186302
    14  C    8.852987   9.284867   8.518576   7.103642   6.481765
    15  C    8.590049   8.813430   7.887954   6.492305   5.651931
    16  C    7.355437   7.483179   6.510283   5.121740   4.242488
    17  C    7.486134   7.333442   6.177650   4.905050   3.725067
    18  C    8.811133   8.553473   7.329106   6.148474   4.870247
    19  C    9.282055   8.823386   7.510878   6.498395   5.117596
    20  C    8.611678   8.000768   6.647044   5.789560   4.380814
    21  C    9.470181   8.699605   7.327392   6.677931   5.303753
    22  C    9.196538   8.300209   6.954787   6.517696   5.250825
    23  C    7.976266   7.079781   5.769510   5.392768   4.233544
    24  C    6.927532   6.181925   4.855140   4.237756   2.995281
    25  C    7.239219   6.663517   5.329519   4.428780   3.031377
    26  C    6.542525   6.219796   4.988226   3.811357   2.504671
    27  H    1.094050   2.180853   3.412032   3.917125   5.326053
    28  H    2.180944   1.094032   2.145747   3.429531   4.626180
    29  H    3.427147   2.150977   1.094481   2.175132   2.715826
    30  H    4.846965   4.053963   2.683691   2.140626   1.089284
    31  H    4.055826   4.846199   4.597275   3.416181   3.869406
    32  H    2.150674   3.427270   3.908840   3.450299   4.617431
    33  H    6.002677   6.764608   6.376977   5.062688   5.097450
    34  H    8.415310   9.157886   8.684994   7.319565   7.096388
    35  H    9.906352  10.364348   9.605324   8.192871   7.553730
    36  H    9.499793   9.621271   8.612328   7.251322   6.275063
    37  H    9.586121   9.422258   8.243696   7.018125   5.806115
    38  H   10.338663   9.845171   8.519773   7.550750   6.166021
    39  H   10.504488   9.734062   8.358459   7.702033   6.317167
    40  H   10.051408   9.076712   7.756404   7.445740   6.232779
    41  H    8.003488   7.022657   5.797133   5.640028   4.673186
    42  H    6.047170   5.333409   4.072386   3.498116   2.465141
                    6          7          8          9         10
     6  C    0.000000
     7  C    1.443133   0.000000
     8  C    2.443758   1.393047   0.000000
     9  C    2.855718   2.459414   1.409292   0.000000
    10  C    4.280895   3.771223   2.487486   1.425629   0.000000
    11  C    2.509982   1.465926   2.495983   3.801018   4.980727
    12  C    3.812129   2.515766   2.950214   4.358986   5.254737
    13  C    4.954220   3.790411   4.327019   5.733106   6.595677
    14  C    5.145007   4.284112   5.148511   6.523080   7.554401
    15  C    4.285773   3.773740   4.913771   6.181779   7.384206
    16  C    2.872063   2.490396   3.762539   4.930688   6.215592
    17  C    2.469619   2.879054   4.263786   5.131476   6.529852
    18  C    3.762105   4.302661   5.681057   6.503543   7.909594
    19  C    4.275743   5.154841   6.501498   7.112441   8.534480
    20  C    3.835142   5.002308   6.245913   6.614617   8.016406
    21  C    5.014214   6.281080   7.453138   7.662978   9.021892
    22  C    5.263010   6.625149   7.643990   7.636883   8.911111
    23  C    4.439932   5.813242   6.678703   6.537073   7.746537
    24  C    3.069580   4.431303   5.320295   5.277104   6.551765
    25  C    2.560966   3.844169   4.989287   5.262714   6.651683
    26  C    1.466659   2.515331   3.781785   4.322231   5.747525
    27  H    6.176003   5.871067   4.628967   3.429112   2.145642
    28  H    5.874809   6.167075   5.325410   3.917684   3.412490
    29  H    4.109855   4.901995   4.612210   3.450265   3.908809
    30  H    2.156472   3.427545   3.866431   3.419845   4.600563
    31  H    3.439958   2.157195   1.091052   2.140181   2.687241
    32  H    4.916130   4.112748   2.722957   2.175338   1.094523
    33  H    4.169599   2.745276   2.638967   3.979133   4.629360
    34  H    5.924532   4.667096   4.973773   6.357559   7.044107
    35  H    6.209031   5.377541   6.218423   7.598976   8.596152
    36  H    4.929181   4.659083   5.880961   7.086393   8.340953
    37  H    4.628712   4.929857   6.286252   7.236332   8.608750
    38  H    5.360991   6.216322   7.567914   8.187345   9.606406
    39  H    5.957451   7.165468   8.388696   8.662735  10.035504
    40  H    6.331377   7.704011   8.691915   8.618160   9.851966
    41  H    5.095651   6.439106   7.146967   6.835898   7.924011
    42  H    2.788483   4.050955   4.718809   4.524680   5.716272
                   11         12         13         14         15
    11  C    0.000000
    12  C    1.411728   0.000000
    13  C    2.444417   1.387215   0.000000
    14  C    2.820870   2.410617   1.402548   0.000000
    15  C    2.435028   2.774706   2.412680   1.387351   0.000000
    16  C    1.421373   2.439015   2.827122   2.447319   1.413867
    17  C    2.502403   3.782981   4.291081   3.790712   2.514277
    18  C    3.809800   4.957076   5.175724   4.328715   2.942295
    19  C    4.944656   6.188109   6.505876   5.685548   4.302259
    20  C    5.176401   6.529100   7.102339   6.508284   5.159395
    21  C    6.558379   7.914688   8.498708   7.882390   6.529725
    22  C    7.146434   8.515651   9.254385   8.797338   7.492675
    23  C    6.547730   7.894635   8.791975   8.543718   7.331472
    24  C    5.204381   6.548017   7.498315   7.344893   6.191095
    25  C    4.312896   5.700344   6.501961   6.181540   4.943555
    26  C    2.887133   4.289693   5.135510   4.930718   3.785356
    27  H    7.120372   7.367769   8.685092   9.678935   9.513094
    28  H    7.602038   8.272039   9.638305  10.365733   9.865591
    29  H    6.333949   7.344507   8.661366   9.099329   8.331693
    30  H    4.645316   5.912313   7.085492   7.236200   6.267093
    31  H    2.725767   2.616420   3.926661   4.980172   5.045114
    32  H    5.093481   5.065793   6.331242   7.433388   7.466474
    33  H    2.170286   1.090860   2.135916   3.392391   3.865353
    34  H    3.431605   2.153622   1.093828   2.172170   3.406818
    35  H    3.914689   3.405166   2.171810   1.093850   2.152368
    36  H    3.428812   3.864304   3.390230   2.131263   1.090068
    37  H    4.153607   5.082362   5.009888   3.934741   2.612386
    38  H    5.914791   7.094400   7.272237   6.310123   4.947968
    39  H    7.300954   8.623832   9.078190   8.321739   6.949979
    40  H    8.238174   9.603520  10.328729   9.841430   8.527293
    41  H    7.300803   8.607874   9.580647   9.431615   8.270929
    42  H    5.031943   6.293269   7.374716   7.425067   6.405415
                   16         17         18         19         20
    16  C    0.000000
    17  C    1.468060   0.000000
    18  C    2.519586   1.428589   0.000000
    19  C    3.778778   2.443499   1.368820   0.000000
    20  C    4.304069   2.845608   2.424237   1.423004   0.000000
    21  C    5.715127   4.262149   3.718229   2.473269   1.419316
    22  C    6.522447   5.105844   4.851462   3.734887   2.436942
    23  C    6.191249   4.893972   5.043478   4.220837   2.803575
    24  C    4.963999   3.768099   4.221110   3.733456   2.435707
    25  C    3.795182   2.460008   2.815289   2.460691   1.433670
    26  C    2.492922   1.408285   2.443674   2.831800   2.487089
    27  H    8.325302   8.532386   9.870995  10.368465   9.705457
    28  H    8.522942   8.295919   9.464122   9.638762   8.738172
    29  H    6.932514   6.375013   7.381182   7.364255   6.371202
    30  H    4.876697   4.061266   4.967074   4.923474   3.981180
    31  H    4.122043   4.921002   6.324055   7.277608   7.155413
    32  H    6.434417   6.971953   8.379608   9.134749   8.735438
    33  H    3.429974   4.664640   5.927651   7.100232   7.300602
    34  H    3.920828   5.383894   6.244781   7.580903   8.188544
    35  H    3.433459   4.663906   4.959014   6.291008   7.252089
    36  H    2.174604   2.744100   2.599121   3.891203   4.977887
    37  H    2.742997   2.183700   1.089951   2.119254   3.404105
    38  H    4.659501   3.435975   2.141540   1.094059   2.175051
    39  H    6.312885   4.881609   4.045862   2.685572   2.165582
    40  H    7.596426   6.172849   5.823064   4.620880   3.430893
    41  H    7.085585   5.859737   6.104386   5.310913   3.896294
    42  H    5.091626   4.128371   4.872210   4.616417   3.426856
                   21         22         23         24         25
    21  C    0.000000
    22  C    1.379711   0.000000
    23  C    2.409789   1.412735   0.000000
    24  C    2.793218   2.428429   1.382588   0.000000
    25  C    2.471296   2.850568   2.451462   1.424362   0.000000
    26  C    3.788206   4.299948   3.796542   2.534920   1.450056
    27  H   10.554789  10.251707   9.011886   7.992173   8.330607
    28  H    9.316220   8.805166   7.582182   6.833302   7.438381
    29  H    6.865448   6.366062   5.209167   4.504077   5.145202
    30  H    4.678554   4.480585   3.476693   2.435906   2.732030
    31  H    8.412236   8.662573   7.718719   6.351870   5.954341
    32  H    9.818835   9.784564   8.641387   7.397308   7.392886
    33  H    8.655177   9.131539   8.373886   7.004502   6.327421
    34  H    9.580239  10.321305   9.826613   8.523282   7.569650
    35  H    8.586525   9.580520   9.427889   8.281945   7.073776
    36  H    6.266720   7.364472   7.409458   6.404824   5.071551
    37  H    4.584161   5.804521   6.096196   5.307338   3.904968
    38  H    2.697234   4.070870   4.850252   4.605020   3.449160
    39  H    1.094440   2.152900   3.409634   3.887273   3.452276
    40  H    2.151998   1.093907   2.178631   3.416451   3.944325
    41  H    3.399181   2.175317   1.094089   2.144445   3.436672
    42  H    3.879919   3.406171   2.131632   1.089404   2.178478
                   26         27         28         29         30
    26  C    0.000000
    27  H    7.621542   0.000000
    28  H    7.130707   2.501314   0.000000
    29  H    5.093362   4.321785   2.482916   0.000000
    30  H    2.732343   5.922545   4.761179   2.454873   0.000000
    31  H    4.668778   4.764224   5.921531   5.549758   4.954467
    32  H    6.359862   2.481979   4.321664   5.003305   5.554797
    33  H    4.934580   6.671763   7.849240   7.237669   6.141044
    34  H    6.199226   9.056451  10.244759   9.470095   8.042019
    35  H    5.894692  10.708620  11.445104  10.178455   8.278780
    36  H    4.139290  10.454282  10.647627   8.953072   6.747974
    37  H    3.428893  10.621341  10.360250   8.352420   5.974769
    38  H    3.923992  11.425451  10.631554   8.314070   5.900758
    39  H    4.650359  11.591537  10.341895   7.878818   5.697623
    40  H    5.393686  11.084981   9.492383   7.073894   5.396738
    41  H    4.677114   8.985070   7.404529   5.148406   3.884227
    42  H    2.779810   7.088250   5.997164   3.817851   2.073700
                   31         32         33         34         35
    31  H    0.000000
    32  H    2.463478   0.000000
    33  H    1.956904   4.265997   0.000000
    34  H    4.366042   6.618746   2.455951   0.000000
    35  H    5.987781   8.423385   4.297099   2.510476   0.000000
    36  H    6.090151   8.484479   4.954698   4.293134   2.447287
    37  H    6.793154   8.983676   6.130450   6.018503   4.360030
    38  H    8.319737  10.205475   8.052129   8.321951   6.772869
    39  H    9.315872  10.813804   9.435287  10.155880   8.921907
    40  H    9.720507  10.755178  10.215260  11.394303  10.595578
    41  H    8.191499   8.855888   8.987408  10.584623  10.343811
    42  H    5.751976   6.573679   6.590802   8.341492   8.422376
                   36         37         38         39         40
    36  H    0.000000
    37  H    1.915812   0.000000
    38  H    4.328529   2.444684   0.000000
    39  H    6.523652   4.719962   2.444660   0.000000
    40  H    8.343301   6.721451   4.770788   2.490318   0.000000
    41  H    8.409193   7.163099   5.923523   4.312766   2.507764
    42  H    6.786484   5.944558   5.563085   4.973300   4.301945
                   41         42
    41  H    0.000000
    42  H    2.444484   0.000000
 Framework group  C1[X(C26H16)]
 Deg. of freedom   120
                         Standard orientation:                         
 ---------------------------------------------------------------------
 Center     Atomic      Atomic             Coordinates (Angstroms)
 Number     Number       Type             X           Y           Z
 ---------------------------------------------------------------------
      1          6           0       -5.330261   -1.314055   -0.143506
      2          6           0       -4.636556   -2.519629   -0.444039
      3          6           0       -3.261028   -2.535638   -0.496911
      4          6           0       -2.509127   -1.350589   -0.244211
      5          6           0       -1.100220   -1.331090   -0.272174
      6          6           0       -0.353896   -0.179563   -0.011356
      7          6           0       -1.063740    1.063464    0.172055
      8          6           0       -2.455806    1.045152    0.221021
      9          6           0       -3.208675   -0.133156    0.045288
     10          6           0       -4.633455   -0.150109    0.091466
     11          6           0       -0.310177    2.320325    0.209229
     12          6           0       -0.928499    3.552097    0.514830
     13          6           0       -0.234974    4.751735    0.449575
     14          6           0        1.115809    4.750357    0.072050
     15          6           0        1.750510    3.548817   -0.207591
     16          6           0        1.069196    2.312143   -0.133649
     17          6           0        1.775435    1.036540   -0.304717
     18          6           0        3.152770    1.006179   -0.682730
     19          6           0        3.861907   -0.163880   -0.724614
     20          6           0        3.280333   -1.378231   -0.264111
     21          6           0        4.057685   -2.559361   -0.141174
     22          6           0        3.532674   -3.700959    0.428668
     23          6           0        2.211420   -3.679445    0.928312
     24          6           0        1.422097   -2.553543    0.783872
     25          6           0        1.903299   -1.380495    0.134865
     26          6           0        1.112320   -0.178913   -0.047386
     27          1           0       -6.423618   -1.316570   -0.104661
     28          1           0       -5.204172   -3.435520   -0.633410
     29          1           0       -2.723124   -3.460791   -0.726343
     30          1           0       -0.592771   -2.253513   -0.551765
     31          1           0       -3.010298    1.975641    0.351873
     32          1           0       -5.164319    0.780873    0.313809
     33          1           0       -1.976666    3.571030    0.816429
     34          1           0       -0.741315    5.690111    0.693561
     35          1           0        1.675092    5.688545    0.012778
     36          1           0        2.809570    3.573289   -0.464577
     37          1           0        3.651848    1.930017   -0.975029
     38          1           0        4.903911   -0.168060   -1.058044
     39          1           0        5.097418   -2.536006   -0.482067
     40          1           0        4.144174   -4.602372    0.529437
     41          1           0        1.812363   -4.553879    1.450950
     42          1           0        0.427649   -2.551712    1.228699
 ---------------------------------------------------------------------
 Rotational constants (GHZ):           0.2505849           0.1952924           0.1126171
   444 basis functions,   970 primitive gaussians,   470 cartesian basis functions
    86 alpha electrons       86 beta electrons
       nuclear repulsion energy      2026.3096046304 Hartrees.
 NAtoms=   42 NActive=   42 NUniq=   42 SFac= 1.00D+00 NAtFMM=   60 NAOKFM=F Big=F
 ExpMin= 1.22D-01 ExpMax= 6.67D+03 ExpMxC= 2.28D+02 IAcc=3 IRadAn=         5 AccDes= 0.00D+00
 Harris functional with IExCor=  205 and IRadAn=       5 diagonalized for initial guess.
 HarFok:  IExCor=  205 AccDes= 0.00D+00 IRadAn=         5 IDoV= 1 UseB2=F ITyADJ=14
 ICtDFT=  3500011 ScaDFX=  1.000000  1.000000  1.000000  1.000000
 FoFCou: FMM=F IPFlag=           0 FMFlag=      100000 FMFlg1=           0
         NFxFlg=           0 DoJE=T BraDBF=F KetDBF=T FulRan=T
         wScrn=  0.000000 ICntrl=       500 IOpCl=  0 I1Cent=   200000004 NGrid=           0
         NMat0=    1 NMatS0=      1 NMatT0=    0 NMatD0=    1 NMtDS0=    0 NMtDT0=    0
 Petite list used in FoFCou.
 Integral accuracy reduced to 1.0D-05 until final iterations.
 Initial convergence to 1.0D-05 achieved.  Increase integral accuracy.
 SCF Done:  E(RHF) =  -994.012670447     A.U. after   17 cycles
            NFock= 17  Conv=0.47D-08     -V/T= 2.0012
 ExpMin= 1.22D-01 ExpMax= 6.67D+03 ExpMxC= 2.28D+02 IAcc=3 IRadAn=         5 AccDes= 0.00D+00
 HarFok:  IExCor=  205 AccDes= 0.00D+00 IRadAn=         5 IDoV=-2 UseB2=F ITyADJ=14
 ICtDFT= 12500011 ScaDFX=  1.000000  1.000000  1.000000  1.000000
 GSVD:  LWork=        -884 too small for GESVD, short by        3770 words or        3770 for optimal perf.
 NROrb=    418 NOA=    60 NOB=    60 NVA=   358 NVB=   358

 **** Warning!!: The largest alpha MO coefficient is  0.12617226D+02

 Estimated scratch disk usage=  5315187192 words.
 Actual    scratch disk usage=  4304979448 words.
 ANorm=    0.1523197957D+01
 E2 =    -0.3370057152D+01 EUMP2 =    -0.99738272759879D+03

 **********************************************************************

            Population analysis using the SCF Density.

 **********************************************************************

 Orbital symmetries:
       Occupied  (A) (A) (A) (A) (A) (A) (A) (A) (A) (A) (A) (A)
                 (A) (A) (A) (A) (A) (A) (A) (A) (A) (A) (A) (A)
                 (A) (A) (A) (A) (A) (A) (A) (A) (A) (A) (A) (A)
                 (A) (A) (A) (A) (A) (A) (A) (A) (A) (A) (A) (A)
                 (A) (A) (A) (A) (A) (A) (A) (A) (A) (A) (A) (A)
                 (A) (A) (A) (A) (A) (A) (A) (A) (A) (A) (A) (A)
                 (A) (A) (A) (A) (A) (A) (A) (A) (A) (A) (A) (A)
                 (A) (A)
       Virtual   (A) (A) (A) (A) (A) (A) (A) (A) (A) (A) (A) (A)
                 (A) (A) (A) (A) (A) (A) (A) (A) (A) (A) (A) (A)
                 (A) (A) (A) (A) (A) (A) (A) (A) (A) (A) (A) (A)
                 (A) (A) (A) (A) (A) (A) (A) (A) (A) (A) (A) (A)
                 (A) (A) (A) (A) (A) (A) (A) (A) (A) (A) (A) (A)
                 (A) (A) (A) (A) (A) (A) (A) (A) (A) (A) (A) (A)
                 (A) (A) (A) (A) (A) (A) (A) (A) (A) (A) (A) (A)
                 (A) (A) (A) (A) (A) (A) (A) (A) (A) (A) (A) (A)
                 (A) (A) (A) (A) (A) (A) (A) (A) (A) (A) (A) (A)
                 (A) (A) (A) (A) (A) (A) (A) (A) (A) (A) (A) (A)
                 (A) (A) (A) (A) (A) (A) (A) (A) (A) (A) (A) (A)
                 (A) (A) (A) (A) (A) (A) (A) (A) (A) (A) (A) (A)
                 (A) (A) (A) (A) (A) (A) (A) (A) (A) (A) (A) (A)
                 (A) (A) (A) (A) (A) (A) (A) (A) (A) (A) (A) (A)
                 (A) (A) (A) (A) (A) (A) (A) (A) (A) (A) (A) (A)
                 (A) (A) (A) (A) (A) (A) (A) (A) (A) (A) (A) (A)
                 (A) (A) (A) (A) (A) (A) (A) (A) (A) (A) (A) (A)
                 (A) (A) (A) (A) (A) (A) (A) (A) (A) (A) (A) (A)
                 (A) (A) (A) (A) (A) (A) (A) (A) (A) (A) (A) (A)
                 (A) (A) (A) (A) (A) (A) (A) (A) (A) (A) (A) (A)
                 (A) (A) (A) (A) (A) (A) (A) (A) (A) (A) (A) (A)
                 (A) (A) (A) (A) (A) (A) (A) (A) (A) (A) (A) (A)
                 (A) (A) (A) (A) (A) (A) (A) (A) (A) (A) (A) (A)
                 (A) (A) (A) (A) (A) (A) (A) (A) (A) (A) (A) (A)
                 (A) (A) (A) (A) (A) (A) (A) (A) (A) (A) (A) (A)
                 (A) (A) (A) (A) (A) (A) (A) (A) (A) (A) (A) (A)
                 (A) (A) (A) (A) (A) (A) (A) (A) (A) (A) (A) (A)
                 (A) (A) (A) (A) (A) (A) (A) (A) (A) (A) (A) (A)
                 (A) (A) (A) (A) (A) (A) (A) (A) (A) (A) (A) (A)
                 (A) (A) (A) (A) (A) (A) (A) (A) (A) (A)
 The electronic state is 1-A.
 Alpha  occ. eigenvalues --  -11.25992 -11.25771 -11.25753 -11.25647 -11.25624
 Alpha  occ. eigenvalues --  -11.25619 -11.25470 -11.25066 -11.25024 -11.24902
 Alpha  occ. eigenvalues --  -11.24636 -11.24593 -11.24589 -11.24566 -11.24518
 Alpha  occ. eigenvalues --  -11.24514 -11.24498 -11.24446 -11.24441 -11.24436
 Alpha  occ. eigenvalues --  -11.24436 -11.24416 -11.24374 -11.24362 -11.24348
 Alpha  occ. eigenvalues --  -11.24245  -1.20039  -1.17360  -1.16195  -1.12268
 Alpha  occ. eigenvalues --   -1.11121  -1.06860  -1.05830  -1.03988  -1.03538
 Alpha  occ. eigenvalues --   -1.00608  -0.99150  -0.97996  -0.96394  -0.88451
 Alpha  occ. eigenvalues --   -0.86425  -0.85671  -0.84050  -0.81668  -0.80614
 Alpha  occ. eigenvalues --   -0.80421  -0.78242  -0.72284  -0.71341  -0.70611
 Alpha  occ. eigenvalues --   -0.69334  -0.67650  -0.66489  -0.64951  -0.63617
 Alpha  occ. eigenvalues --   -0.63279  -0.61463  -0.60648  -0.60442  -0.59518
 Alpha  occ. eigenvalues --   -0.58838  -0.57859  -0.57712  -0.57389  -0.56647
 Alpha  occ. eigenvalues --   -0.55206  -0.53793  -0.53535  -0.52735  -0.51550
 Alpha  occ. eigenvalues --   -0.51185  -0.50125  -0.49225  -0.48850  -0.47064
 Alpha  occ. eigenvalues --   -0.46436  -0.45746  -0.44416  -0.39825  -0.38483
 Alpha  occ. eigenvalues --   -0.35804  -0.35522  -0.31918  -0.30152  -0.27922
 Alpha  occ. eigenvalues --   -0.25370
 Alpha virt. eigenvalues --    0.05204   0.07800   0.08906   0.11354   0.15040
 Alpha virt. eigenvalues --    0.15755   0.17841   0.18302   0.18466   0.18575
 Alpha virt. eigenvalues --    0.19006   0.19902   0.20085   0.22027   0.22146
 Alpha virt. eigenvalues --    0.23892   0.23991   0.24987   0.25990   0.26817
 Alpha virt. eigenvalues --    0.26923   0.28064   0.28475   0.29493   0.32583
 Alpha virt. eigenvalues --    0.33696   0.36741   0.37272   0.38415   0.39369
 Alpha virt. eigenvalues --    0.40256   0.40475   0.42672   0.43761   0.44218
 Alpha virt. eigenvalues --    0.44433   0.45331   0.45491   0.46130   0.47015
 Alpha virt. eigenvalues --    0.47745   0.48049   0.49530   0.49844   0.50571
 Alpha virt. eigenvalues --    0.52258   0.54585   0.56194   0.58980   0.60073
 Alpha virt. eigenvalues --    0.60942   0.61845   0.64049   0.64642   0.64962
 Alpha virt. eigenvalues --    0.66059   0.66162   0.66434   0.66853   0.67603
 Alpha virt. eigenvalues --    0.67723   0.68113   0.68570   0.68796   0.69407
 Alpha virt. eigenvalues --    0.69649   0.69752   0.70029   0.70600   0.71450
 Alpha virt. eigenvalues --    0.71545   0.71876   0.72265   0.72677   0.72778
 Alpha virt. eigenvalues --    0.73309   0.73445   0.74138   0.74429   0.74549
 Alpha virt. eigenvalues --    0.74872   0.75143   0.75408   0.75693   0.76538
 Alpha virt. eigenvalues --    0.76784   0.77063   0.77802   0.77944   0.78729
 Alpha virt. eigenvalues --    0.79371   0.79861   0.80395   0.81283   0.81772
 Alpha virt. eigenvalues --    0.82400   0.83747   0.85174   0.85954   0.86789
 Alpha virt. eigenvalues --    0.86805   0.87590   0.87950   0.88515   0.88631
 Alpha virt. eigenvalues --    0.89350   0.89827   0.90329   0.90891   0.92159
 Alpha virt. eigenvalues --    0.92374   0.93053   0.93496   0.94085   0.94852
 Alpha virt. eigenvalues --    0.95048   0.96080   0.96869   0.97634   0.98167
 Alpha virt. eigenvalues --    0.98837   0.99951   1.00741   1.02433   1.03014
 Alpha virt. eigenvalues --    1.05175   1.07175   1.08547   1.08672   1.09675
 Alpha virt. eigenvalues --    1.10642   1.11461   1.11899   1.12237   1.12502
 Alpha virt. eigenvalues --    1.13059   1.13887   1.14488   1.14703   1.15015
 Alpha virt. eigenvalues --    1.15168   1.16220   1.16606   1.16999   1.17289
 Alpha virt. eigenvalues --    1.17639   1.18394   1.18976   1.19521   1.20190
 Alpha virt. eigenvalues --    1.20623   1.21186   1.21422   1.22317   1.22561
 Alpha virt. eigenvalues --    1.23349   1.23990   1.24311   1.25016   1.25682
 Alpha virt. eigenvalues --    1.26226   1.26666   1.27675   1.28447   1.29188
 Alpha virt. eigenvalues --    1.29818   1.30671   1.30919   1.31645   1.32599
 Alpha virt. eigenvalues --    1.32706   1.34580   1.35208   1.35828   1.36370
 Alpha virt. eigenvalues --    1.38640   1.38892   1.40122   1.41662   1.45489
 Alpha virt. eigenvalues --    1.48825   1.49947   1.51498   1.53869   1.54400
 Alpha virt. eigenvalues --    1.56247   1.56376   1.56606   1.58449   1.59872
 Alpha virt. eigenvalues --    1.60635   1.62599   1.63444   1.64138   1.64769
 Alpha virt. eigenvalues --    1.66011   1.66427   1.66889   1.68168   1.68730
 Alpha virt. eigenvalues --    1.70548   1.70705   1.71718   1.72995   1.73564
 Alpha virt. eigenvalues --    1.74246   1.74396   1.74804   1.75093   1.75643
 Alpha virt. eigenvalues --    1.76099   1.77134   1.78173   1.78881   1.79546
 Alpha virt. eigenvalues --    1.82299   1.82527   1.82624   1.84118   1.84336
 Alpha virt. eigenvalues --    1.85229   1.86112   1.86240   1.87231   1.88544
 Alpha virt. eigenvalues --    1.89388   1.89666   1.90273   1.90528   1.91131
 Alpha virt. eigenvalues --    1.91397   1.92048   1.92133   1.92525   1.93269
 Alpha virt. eigenvalues --    1.93405   1.93635   1.94296   1.94464   1.95684
 Alpha virt. eigenvalues --    1.96356   1.96887   1.97535   1.98227   1.98673
 Alpha virt. eigenvalues --    1.99790   2.00747   2.01251   2.01684   2.02211
 Alpha virt. eigenvalues --    2.02687   2.03962   2.04723   2.05763   2.06025
 Alpha virt. eigenvalues --    2.06247   2.07229   2.07936   2.08680   2.09739
 Alpha virt. eigenvalues --    2.09903   2.11627   2.12264   2.13006   2.13414
 Alpha virt. eigenvalues --    2.14003   2.14271   2.15066   2.15581   2.16072
 Alpha virt. eigenvalues --    2.16177   2.16831   2.17023   2.17533   2.18633
 Alpha virt. eigenvalues --    2.19483   2.19588   2.20346   2.21998   2.22424
 Alpha virt. eigenvalues --    2.23333   2.24925   2.26747   2.26916   2.27557
 Alpha virt. eigenvalues --    2.27993   2.28920   2.31317   2.31633   2.32653
 Alpha virt. eigenvalues --    2.33511   2.34061   2.34877   2.35975   2.37455
 Alpha virt. eigenvalues --    2.38052   2.38421   2.38721   2.39767   2.41529
 Alpha virt. eigenvalues --    2.43827   2.44887   2.47041   2.49280   2.51174
 Alpha virt. eigenvalues --    2.52808   2.53248   2.54114   2.54688   2.55204
 Alpha virt. eigenvalues --    2.57153   2.58783   2.60442   2.61138   2.64692
 Alpha virt. eigenvalues --    2.65516   2.67651   2.70262   2.70407   2.70996
 Alpha virt. eigenvalues --    2.71696   2.72618   2.73485   2.75781   2.77136
 Alpha virt. eigenvalues --    2.77786   2.78545   2.81128   2.82397   2.83234
 Alpha virt. eigenvalues --    2.90613   2.92643   2.93726   2.94843   2.96609
 Alpha virt. eigenvalues --    3.00421   3.02055   3.02681   3.03512   3.04300
 Alpha virt. eigenvalues --    3.05836   3.07801   3.09490   3.11744   3.11975
 Alpha virt. eigenvalues --    3.13209   3.18049   3.20268   3.22827   3.27067
 Alpha virt. eigenvalues --    3.28512   3.31644   3.55193   3.66721   3.70441
 Alpha virt. eigenvalues --    3.87126   3.90705   3.96835
          Condensed to atoms (all electrons):
 Mulliken charges:
               1
     1  C   -0.016059
     2  C   -0.016803
     3  C    0.020130
     4  C   -0.082290
     5  C    0.030147
     6  C   -0.081639
     7  C   -0.025076
     8  C    0.049413
     9  C   -0.088883
    10  C    0.018668
    11  C   -0.052693
    12  C   -0.018675
    13  C    0.008825
    14  C    0.007762
    15  C   -0.019805
    16  C   -0.030655
    17  C   -0.035414
    18  C   -0.011072
    19  C    0.048684
    20  C   -0.091092
    21  C    0.029059
    22  C   -0.018181
    23  C   -0.004480
    24  C   -0.034272
    25  C   -0.093756
    26  C    0.084719
    27  H    0.030406
    28  H    0.030519
    29  H    0.018274
    30  H    0.038072
    31  H    0.015588
    32  H    0.016493
    33  H    0.025980
    34  H    0.027019
    35  H    0.026807
    36  H    0.026596
    37  H    0.028105
    38  H    0.017124
    39  H    0.018884
    40  H    0.029808
    41  H    0.029500
    42  H    0.044263
 Sum of Mulliken charges =  -0.00000
 Mulliken charges with hydrogens summed into heavy atoms:
               1
     1  C    0.014347
     2  C    0.013717
     3  C    0.038404
     4  C   -0.082290
     5  C    0.068219
     6  C   -0.081639
     7  C   -0.025076
     8  C    0.065001
     9  C   -0.088883
    10  C    0.035161
    11  C   -0.052693
    12  C    0.007305
    13  C    0.035845
    14  C    0.034569
    15  C    0.006791
    16  C   -0.030655
    17  C   -0.035414
    18  C    0.017033
    19  C    0.065808
    20  C   -0.091092
    21  C    0.047943
    22  C    0.011627
    23  C    0.025019
    24  C    0.009991
    25  C   -0.093756
    26  C    0.084719
 Electronic spatial extent (au):  <R**2>=           9146.3081
 Charge=             -0.0000 electrons
 Dipole moment (field-independent basis, Debye):
    X=              0.0492    Y=              0.0543    Z=              0.0297  Tot=              0.0791
 Unable to Open any file for archive entry.
 1\1\GINC-NODE01\SP\RMP2-FC\CC-pVDZ\C26H16\XUHJ\11-Oct-2024\0\\#T MP2/c
 c-pVDZ symm=veryloose\\c1ccc2cc3c(cc2c1)c1ccccc1c1ccc2ccccc2c13\\0,1\C
 ,0,-5.330261,-1.314055,-0.143506\C,0,-4.636556,-2.519629,-0.444039\C,0
 ,-3.261028,-2.535638,-0.496911\C,0,-2.509127,-1.350589,-0.244211\C,0,-
 1.10022,-1.33109,-0.272174\C,0,-0.353896,-0.179563,-0.011356\C,0,-1.06
 374,1.063464,0.172055\C,0,-2.455806,1.045152,0.221021\C,0,-3.208675,-0
 .133156,0.045288\C,0,-4.633455,-0.150109,0.091466\C,0,-0.310177,2.3203
 25,0.209229\C,0,-0.928499,3.552097,0.51483\C,0,-0.234974,4.751735,0.44
 9575\C,0,1.115809,4.750357,0.07205\C,0,1.75051,3.548817,-0.207591\C,0,
 1.069196,2.312143,-0.133649\C,0,1.775435,1.03654,-0.304717\C,0,3.15277
 ,1.006179,-0.68273\C,0,3.861907,-0.16388,-0.724614\C,0,3.280333,-1.378
 231,-0.264111\C,0,4.057685,-2.559361,-0.141174\C,0,3.532674,-3.700959,
 0.428668\C,0,2.21142,-3.679445,0.928312\C,0,1.422097,-2.553543,0.78387
 2\C,0,1.903299,-1.380495,0.134865\C,0,1.11232,-0.178913,-0.047386\H,0,
 -6.423618,-1.31657,-0.104661\H,0,-5.204172,-3.43552,-0.63341\H,0,-2.72
 3124,-3.460791,-0.726343\H,0,-0.592771,-2.253513,-0.551765\H,0,-3.0102
 98,1.975641,0.351873\H,0,-5.164319,0.780873,0.313809\H,0,-1.976666,3.5
 7103,0.816429\H,0,-0.741315,5.690111,0.693561\H,0,1.675092,5.688545,0.
 012778\H,0,2.80957,3.573289,-0.464577\H,0,3.651848,1.930017,-0.975029\
 H,0,4.903911,-0.16806,-1.058044\H,0,5.097418,-2.536006,-0.482067\H,0,4
 .144174,-4.602372,0.529437\H,0,1.812363,-4.553879,1.45095\H,0,0.427649
 ,-2.551712,1.228699\\Version=ES64L-G16RevC.01\State=1-A\HF=-994.012670
 4\MP2=-997.3827276\RMSD=4.656e-09\PG=C01 [X(C26H16)]\\@
 The archive entry for this job was punched.


 EXPERIENCE IS A WONDERFUL THING.  IT ENABLES
 YOU TO RECOGNIZE A MISTAKE WHEN YOU MAKE IT AGAIN.
           - BACK OF A SUGAR PACKET
 Job cpu time:       0 days  0 hours 32 minutes 20.3 seconds.
 Elapsed time:       0 days  0 hours  4 minutes  2.6 seconds.
 File lengths (MBytes):  RWF=  32955 Int=      0 D2E=      0 Chk=     14 Scr=      1
 Normal termination of Gaussian 16 at Fri Oct 11 15:34:31 2024.
