 Entering Gaussian System, Link 0=g16
 Initial command:
 /opt/g16/l1.exe "/tmp/Gau-2535910.inp" -scrdir="/tmp/"
 Entering Link 1 = /opt/g16/l1.exe PID=   2535912.
  
 Copyright (c) 1988-2019, Gaussian, Inc.  All Rights Reserved.
  
 This is part of the Gaussian(R) 16 program.  It is based on
 the Gaussian(R) 09 system (copyright 2009, Gaussian, Inc.),
 the Gaussian(R) 03 system (copyright 2003, Gaussian, Inc.),
 the Gaussian(R) 98 system (copyright 1998, Gaussian, Inc.),
 the Gaussian(R) 94 system (copyright 1995, Gaussian, Inc.),
 the Gaussian 92(TM) system (copyright 1992, Gaussian, Inc.),
 the Gaussian 90(TM) system (copyright 1990, Gaussian, Inc.),
 the Gaussian 88(TM) system (copyright 1988, Gaussian, Inc.),
 the Gaussian 86(TM) system (copyright 1986, Carnegie Mellon
 University), and the Gaussian 82(TM) system (copyright 1983,
 Carnegie Mellon University). Gaussian is a federally registered
 trademark of Gaussian, Inc.
  
 This software contains proprietary and confidential information,
 including trade secrets, belonging to Gaussian, Inc.
  
 This software is provided under written license and may be
 used, copied, transmitted, or stored only in accord with that
 written license.
  
 The following legend is applicable only to US Government
 contracts under FAR:
  
                    RESTRICTED RIGHTS LEGEND
  
 Use, reproduction and disclosure by the US Government is
 subject to restrictions as set forth in subparagraphs (a)
 and (c) of the Commercial Computer Software - Restricted
 Rights clause in FAR 52.227-19.
  
 Gaussian, Inc.
 340 Quinnipiac St., Bldg. 40, Wallingford CT 06492
  
  
 ---------------------------------------------------------------
 Warning -- This program may not be used in any manner that
 competes with the business of Gaussian, Inc. or will provide
 assistance to any competitor of Gaussian, Inc.  The licensee
 of this program is prohibited from giving any competitor of
 Gaussian, Inc. access to this program.  By using this program,
 the user acknowledges that Gaussian, Inc. is engaged in the
 business of creating and licensing software in the field of
 computational chemistry and represents and warrants to the
 licensee that it is not a competitor of Gaussian, Inc. and that
 it will not use this program in any manner prohibited above.
 ---------------------------------------------------------------
  

 Cite this work as:
 Gaussian 16, Revision C.01,
 M. J. Frisch, G. W. Trucks, H. B. Schlegel, G. E. Scuseria, 
 M. A. Robb, J. R. Cheeseman, G. Scalmani, V. Barone, 
 G. A. Petersson, H. Nakatsuji, X. Li, M. Caricato, A. V. Marenich, 
 J. Bloino, B. G. Janesko, R. Gomperts, B. Mennucci, H. P. Hratchian, 
 J. V. Ortiz, A. F. Izmaylov, J. L. Sonnenberg, D. Williams-Young, 
 F. Ding, F. Lipparini, F. Egidi, J. Goings, B. Peng, A. Petrone, 
 T. Henderson, D. Ranasinghe, V. G. Zakrzewski, J. Gao, N. Rega, 
 G. Zheng, W. Liang, M. Hada, M. Ehara, K. Toyota, R. Fukuda, 
 J. Hasegawa, M. Ishida, T. Nakajima, Y. Honda, O. Kitao, H. Nakai, 
 T. Vreven, K. Throssell, J. A. Montgomery, Jr., J. E. Peralta, 
 F. Ogliaro, M. J. Bearpark, J. J. Heyd, E. N. Brothers, K. N. Kudin, 
 V. N. Staroverov, T. A. Keith, R. Kobayashi, J. Normand, 
 K. Raghavachari, A. P. Rendell, J. C. Burant, S. S. Iyengar, 
 J. Tomasi, M. Cossi, J. M. Millam, M. Klene, C. Adamo, R. Cammi, 
 J. W. Ochterski, R. L. Martin, K. Morokuma, O. Farkas, 
 J. B. Foresman, and D. J. Fox, Gaussian, Inc., Wallingford CT, 2019.
 
 ******************************************
 Gaussian 16:  ES64L-G16RevC.01  3-Jul-2019
                11-Oct-2024 
 ******************************************
 %nprocshared=8
 Will use up to    8 processors via shared memory.
 %mem=8800MB
 -----------------------------
 #T MP2/cc-pVDZ symm=veryloose
 -----------------------------
 ----------------------------------
 c1ccc2c(c1)ccc1ccc3ccc4ccccc4c3c12
 ----------------------------------
 Symbolic Z-matrix:
 Charge =  0 Multiplicity = 1
 C                     0.65505   3.30438  -2.57188 
 C                     1.13601   1.97716  -2.58388 
 C                     0.91045   1.14     -1.50671 
 C                     0.19279   1.57513  -0.36098 
 C                    -0.18629   2.95459  -0.31039 
 C                     0.01849   3.78327  -1.4436 
 C                    -0.68255   3.50705   0.9129 
 C                    -0.68255   2.75874   2.05399 
 C                    -0.3248    1.37173   2.03314 
 C                    -0.20476   0.65295   3.25834 
 C                     0.20476  -0.65295   3.25834 
 C                     0.3248   -1.37173   2.03314 
 C                     0.68255  -2.75874   2.05399 
 C                     0.68255  -3.50705   0.9129 
 C                     0.18629  -2.95459  -0.31039 
 C                    -0.01849  -3.78327  -1.4436 
 C                    -0.65505  -3.30438  -2.57188 
 C                    -1.13601  -1.97716  -2.58388 
 C                    -0.91045  -1.14     -1.50671 
 C                    -0.19279  -1.57513  -0.36098 
 C                     0.05254  -0.72236   0.79583 
 C                    -0.05254   0.72236   0.79583 
 H                     0.819     3.95717  -3.43427 
 H                     1.70022   1.6077   -3.44523 
 H                     1.31153   0.12771  -1.53169 
 H                    -0.30871   4.82641  -1.3921 
 H                    -0.98362   4.55875   0.93189 
 H                    -0.96147   3.20496   3.01338 
 H                    -0.38855   1.18314   4.19748 
 H                     0.38855  -1.18314   4.19748 
 H                     0.96147  -3.20496   3.01338 
 H                     0.98362  -4.55875   0.93189 
 H                     0.30871  -4.82641  -1.3921 
 H                    -0.819    -3.95717  -3.43427 
 H                    -1.70022  -1.6077   -3.44523 
 H                    -1.31153  -0.12771  -1.53169 
 
                    Distance matrix (angstroms):
                    1          2          3          4          5
     1  C    0.000000
     2  C    1.411726   0.000000
     3  C    2.425764   1.382754   0.000000
     4  C    2.844647   2.447969   1.420231   0.000000
     5  C    2.438142   2.805814   2.434488   1.431487   0.000000
     6  C    1.381140   2.410624   2.790418   2.465424   1.418741
     7  C    3.738174   4.227908   3.741000   2.474131   1.431061
     8  C    4.846186   5.042600   4.223328   2.828291   2.423821
     9  C    5.089344   4.880306   3.756337   2.457867   2.831388
    10  C    6.462251   6.138617   4.917979   3.756051   4.246605
    11  C    7.060779   6.474269   5.139873   4.250174   5.089506
    12  C    6.571246   5.761078   4.379763   3.799117   4.946759
    13  C    7.626321   6.644108   5.284948   4.985421   6.243981
    14  C    7.651145   6.519946   5.244194   5.262250   6.633562
    15  C    6.671481   5.512970   4.326805   4.530007   5.920909
    16  C    7.208423   5.984619   5.010541   5.470758   6.834548
    17  C    6.737353   5.576976   4.830928   5.423696   6.671481
    18  C    5.576976   4.560567   3.881368   4.396107   5.512970
    19  C    4.830928   3.881368   2.917893   3.146708   4.326805
    20  C    5.423696   4.396107   3.146708   3.173774   4.530007
    21  C    5.283844   4.459113   3.083187   2.576107   3.847162
    22  C    4.302201   3.795994   2.530498   1.457951   2.494888
    23  H    1.093957   2.178095   3.414717   3.938443   3.431388
    24  H    2.175741   1.093967   2.144842   3.433072   3.898751
    25  H    3.406486   2.135032   1.089138   2.171902   3.424363
    26  H    2.153434   3.409654   3.884461   3.447530   2.165359
    27  H    4.066335   4.849543   4.606745   3.457954   2.179986
    28  H    5.815338   6.102150   5.310305   3.921097   3.422142
    29  H    7.170280   6.995822   5.850383   4.612070   4.847660
    30  H    8.126071   7.518842   6.181189   5.331603   6.145904
    31  H    8.582571   7.629821   6.269970   5.901401   7.092594
    32  H    8.614704   7.423072   6.199025   6.318346   7.704689
    33  H    8.223224   6.956528   5.997771   6.485085   7.871401
    34  H    7.459659   6.305671   5.717310   6.408990   7.611261
    35  H    5.517109   4.651599   4.257151   4.819383   5.738782
    36  H    4.090067   3.395301   2.558304   2.556013   3.501185
                    6          7          8          9         10
     6  C    0.000000
     7  C    2.474040   0.000000
     8  C    3.711369   1.364568   0.000000
     9  C    4.245130   2.437728   1.432554   0.000000
    10  C    5.653048   3.724947   2.472465   1.425535   0.000000
    11  C    6.467071   4.857370   3.725245   2.425055   1.368613
    12  C    6.225405   5.106102   4.251592   2.819327   2.425055
    13  C    7.447956   6.513508   5.683849   4.251592   3.725245
    14  C    7.690444   7.145714   6.513508   5.106102   4.857370
    15  C    6.834548   6.633562   6.243981   4.946759   5.089506
    16  C    7.566630   7.690444   7.447956   6.225405   6.467071
    17  C    7.208423   7.651145   7.626321   6.571246   7.060779
    18  C    5.984619   6.519946   6.644108   5.761078   6.474269
    19  C    5.010541   5.244194   5.284948   4.379763   5.139873
    20  C    5.470758   5.262250   4.985421   3.799117   4.250174
    21  C    5.031586   4.294411   3.773773   2.461412   2.832248
    22  C    3.793322   2.857477   2.475230   1.423649   2.468185
    23  H    2.152630   4.621167   5.814798   6.155110   7.533717
    24  H    3.401153   5.317750   6.102776   5.845421   7.034077
    25  H    3.878506   4.623022   4.873986   4.114995   5.051665
    26  H    1.094459   2.682065   4.036148   4.864904   6.249402
    27  H    2.692316   1.094109   2.142379   3.435679   4.612401
    28  H    4.599945   2.140345   1.094234   2.174154   2.673081
    29  H    6.224802   4.034284   2.676473   2.173472   1.094016
    30  H    7.524893   5.825260   4.613055   3.423539   2.145987
    31  H    8.342023   7.222604   6.260114   4.854022   4.037774
    32  H    8.727187   8.236124   7.588213   6.172148   5.829794
    33  H    8.614719   8.702997   8.390027   7.109890   7.205106
    34  H    8.036075   8.638931   8.674274   7.650754   8.149938
    35  H    6.001916   6.796294   7.095266   6.386026   7.230816
    36  H    4.131888   4.425286   4.645890   3.991238   4.977820
                   11         12         13         14         15
    11  C    0.000000
    12  C    1.425535   0.000000
    13  C    2.472465   1.432554   0.000000
    14  C    3.724947   2.437728   1.364568   0.000000
    15  C    4.246605   2.831388   2.423821   1.431061   0.000000
    16  C    5.653048   4.245130   3.711369   2.474040   1.418741
    17  C    6.462251   5.089344   4.846186   3.738174   2.438142
    18  C    6.138617   4.880306   5.042600   4.227908   2.805814
    19  C    4.917979   3.756337   4.223328   3.741000   2.434488
    20  C    3.756051   2.457867   2.828291   2.474131   1.431487
    21  C    2.468185   1.423649   2.475230   2.857477   2.494888
    22  C    2.832248   2.461412   3.773773   4.294411   3.847162
    23  H    8.149938   7.650754   8.674274   8.638931   7.611261
    24  H    7.230816   6.386026   7.095266   6.796294   5.738782
    25  H    4.977820   3.991238   4.645890   4.425286   3.501185
    26  H    7.205106   7.109890   8.390027   8.702997   7.871401
    27  H    5.829794   6.172148   7.588213   8.236124   7.704689
    28  H    4.037774   4.854022   6.260114   7.222604   7.092594
    29  H    2.145987   3.423539   4.613055   5.825260   6.145904
    30  H    1.094016   2.173472   2.676473   4.034284   4.847660
    31  H    2.673081   2.174154   1.094234   2.140345   3.422142
    32  H    4.612401   3.435679   2.142379   1.094109   2.179986
    33  H    6.249402   4.864904   4.036148   2.682065   2.165359
    34  H    7.533717   6.155110   5.814798   4.621167   3.431388
    35  H    7.034077   5.845421   6.102776   5.317750   3.898751
    36  H    5.051665   4.114995   4.873986   4.623022   3.424363
                   16         17         18         19         20
    16  C    0.000000
    17  C    1.381140   0.000000
    18  C    2.410624   1.411726   0.000000
    19  C    2.790418   2.425764   1.382754   0.000000
    20  C    2.465424   2.844647   2.447969   1.420231   0.000000
    21  C    3.793322   4.302201   3.795994   2.530498   1.457951
    22  C    5.031586   5.283844   4.459113   3.083187   2.576107
    23  H    8.036075   7.459659   6.305671   5.717310   6.408990
    24  H    6.001916   5.517109   4.651599   4.257151   4.819383
    25  H    4.131888   4.090067   3.395301   2.558304   2.556013
    26  H    8.614719   8.223224   6.956528   5.997771   6.485085
    27  H    8.727187   8.614704   7.423072   6.199025   6.318346
    28  H    8.342023   8.582571   7.629821   6.269970   5.901401
    29  H    7.524893   8.126071   7.518842   6.181189   5.331603
    30  H    6.224802   7.170280   6.995822   5.850383   4.612070
    31  H    4.599945   5.815338   6.102150   5.310305   3.921097
    32  H    2.692316   4.066335   4.849543   4.606745   3.457954
    33  H    1.094459   2.153434   3.409654   3.884461   3.447530
    34  H    2.152630   1.093957   2.178095   3.414717   3.938443
    35  H    3.401153   2.175741   1.093967   2.144842   3.433072
    36  H    3.878506   3.406486   2.135032   1.089138   2.171902
                   21         22         23         24         25
    21  C    0.000000
    22  C    1.448526   0.000000
    23  H    6.354456   5.396046   0.000000
    24  H    5.111804   4.673599   2.509319   0.000000
    25  H    2.779388   2.762534   4.304315   2.450116   0.000000
    26  H    5.975470   4.657882   2.489533   4.314072   4.972158
    27  H    5.383516   3.950112   4.761798   5.922069   5.565164
    28  H    4.622726   3.450661   6.731133   7.165858   5.940847
    29  H    3.923866   3.449127   8.209569   7.934367   6.068571
    30  H    3.449127   3.923866   9.211498   8.241373   5.949250
    31  H    3.450661   4.622726   9.637876   8.088331   5.646852
    32  H    3.950112   5.383516   9.571382   7.595905   5.304686
    33  H    4.657882   5.975470   9.032275   6.895602   5.056523
    34  H    5.396046   6.354456   8.082059   6.108543   4.984498
    35  H    4.673599   5.111804   6.108543   4.679935   3.967863
    36  H    2.762534   2.779388   4.984498   3.967863   2.635467
                   26         27         28         29         30
    26  H    0.000000
    27  H    2.434761   0.000000
    28  H    4.739561   2.483114   0.000000
    29  H    6.672564   4.734230   2.412069   0.000000
    30  H    8.236759   6.746577   4.741320   2.490622   0.000000
    31  H    9.247945   8.269903   6.692149   4.741320   2.412069
    32  H    9.754600   9.327324   8.269903   6.746577   4.734230
    33  H    9.672535   9.754600   9.247945   8.236759   6.672564
    34  H    9.032275   9.571382   9.637876   9.211498   8.209569
    35  H    6.895602   7.595905   8.088331   8.241373   7.934367
    36  H    5.056523   5.304686   5.646852   5.949250   6.068571
                   31         32         33         34         35
    31  H    0.000000
    32  H    2.483114   0.000000
    33  H    4.739561   2.434761   0.000000
    34  H    6.731133   4.761798   2.489533   0.000000
    35  H    7.165858   5.922069   4.314072   2.509319   0.000000
    36  H    5.940847   5.565164   4.972158   4.304315   2.450116
                   36
    36  H    0.000000
 Framework group  C2[X(C22H14)]
 Deg. of freedom    52
                         Standard orientation:                         
 ---------------------------------------------------------------------
 Center     Atomic      Atomic             Coordinates (Angstroms)
 Number     Number       Type             X           Y           Z
 ---------------------------------------------------------------------
      1          6           0        0.655047    3.304375   -2.571878
      2          6           0        1.136014    1.977161   -2.583875
      3          6           0        0.910449    1.140003   -1.506705
      4          6           0        0.192787    1.575133   -0.360983
      5          6           0       -0.186294    2.954587   -0.310390
      6          6           0        0.018489    3.783270   -1.443604
      7          6           0       -0.682553    3.507054    0.912902
      8          6           0       -0.682553    2.758742    2.053987
      9          6           0       -0.324803    1.371734    2.033143
     10          6           0       -0.204760    0.652954    3.258335
     11          6           0        0.204760   -0.652954    3.258335
     12          6           0        0.324803   -1.371734    2.033143
     13          6           0        0.682553   -2.758742    2.053987
     14          6           0        0.682553   -3.507054    0.912902
     15          6           0        0.186294   -2.954587   -0.310390
     16          6           0       -0.018489   -3.783270   -1.443604
     17          6           0       -0.655047   -3.304375   -2.571878
     18          6           0       -1.136014   -1.977161   -2.583875
     19          6           0       -0.910449   -1.140003   -1.506705
     20          6           0       -0.192787   -1.575133   -0.360983
     21          6           0        0.052537   -0.722355    0.795826
     22          6           0       -0.052537    0.722355    0.795826
     23          1           0        0.818998    3.957166   -3.434273
     24          1           0        1.700223    1.607697   -3.445227
     25          1           0        1.311530    0.127713   -1.531687
     26          1           0       -0.308707    4.826405   -1.392098
     27          1           0       -0.983622    4.558753    0.931889
     28          1           0       -0.961471    3.204963    3.013383
     29          1           0       -0.388551    1.183143    4.197479
     30          1           0        0.388551   -1.183143    4.197479
     31          1           0        0.961471   -3.204963    3.013383
     32          1           0        0.983622   -4.558753    0.931889
     33          1           0        0.308707   -4.826405   -1.392098
     34          1           0       -0.818998   -3.957166   -3.434273
     35          1           0       -1.700223   -1.607697   -3.445227
     36          1           0       -1.311530   -0.127713   -1.531687
 ---------------------------------------------------------------------
 Rotational constants (GHZ):           0.4452425           0.2810180           0.1854046
   378 basis functions,   824 primitive gaussians,   400 cartesian basis functions
    73 alpha electrons       73 beta electrons
       nuclear repulsion energy      1599.5235837639 Hartrees.
 NAtoms=   36 NActive=   36 NUniq=   18 SFac= 4.00D+00 NAtFMM=   60 NAOKFM=F Big=F
 ExpMin= 1.22D-01 ExpMax= 6.67D+03 ExpMxC= 2.28D+02 IAcc=3 IRadAn=         5 AccDes= 0.00D+00
 Harris functional with IExCor=  205 and IRadAn=       5 diagonalized for initial guess.
 HarFok:  IExCor=  205 AccDes= 0.00D+00 IRadAn=         5 IDoV= 1 UseB2=F ITyADJ=14
 ICtDFT=  3500011 ScaDFX=  1.000000  1.000000  1.000000  1.000000
 FoFCou: FMM=F IPFlag=           0 FMFlag=      100000 FMFlg1=           0
         NFxFlg=           0 DoJE=T BraDBF=F KetDBF=T FulRan=T
         wScrn=  0.000000 ICntrl=       500 IOpCl=  0 I1Cent=   200000004 NGrid=           0
         NMat0=    1 NMatS0=      1 NMatT0=    0 NMatD0=    1 NMtDS0=    0 NMtDT0=    0
 Petite list used in FoFCou.
 Initial guess orbital symmetries:
       Occupied  (A) (B) (A) (A) (B) (B) (B) (A) (B) (A) (B) (A)
                 (B) (A) (B) (A) (B) (A) (B) (A) (A) (B) (A) (B)
                 (A) (B) (A) (A) (B) (B) (A) (A) (B) (B) (A) (A)
                 (B) (A) (B) (B) (A) (A) (A) (B) (B) (B) (A) (A)
                 (A) (B) (A) (B) (B) (A) (A) (B) (B) (A) (A) (B)
                 (A) (B) (B) (B) (A) (A) (B) (B) (A) (A) (B) (B)
                 (A)
       Virtual   (B) (A) (A) (B) (B) (A) (A) (B) (A) (A) (B) (A)
                 (B) (B) (A) (A) (B) (A) (B) (B) (A) (A) (A) (B)
                 (A) (B) (B) (B) (A) (B) (A) (A) (B) (A) (B) (B)
                 (A) (A) (A) (B) (B) (B) (A) (B) (A) (A) (A) (B)
                 (A) (B) (B) (A) (B) (A) (B) (B) (A) (A) (B) (A)
                 (B) (A) (B) (A) (B) (A) (B) (B) (A) (B) (A) (A)
                 (B) (A) (A) (B) (A) (B) (B) (A) (B) (A) (B) (B)
                 (A) (B) (A) (B) (A) (B) (A) (B) (A) (A) (B) (A)
                 (B) (B) (B) (A) (A) (B) (A) (B) (A) (B) (A) (B)
                 (A) (B) (A) (B) (A) (B) (B) (A) (B) (A) (B) (A)
                 (A) (B) (A) (B) (B) (A) (B) (A) (A) (B) (B) (A)
                 (B) (A) (A) (B) (A) (B) (B) (A) (B) (A) (B) (A)
                 (B) (A) (B) (A) (B) (A) (A) (B) (A) (B) (B) (B)
                 (A) (B) (A) (A) (B) (B) (A) (A) (B) (B) (A) (A)
                 (B) (A) (A) (B) (A) (B) (A) (B) (A) (B) (A) (A)
                 (B) (B) (B) (A) (A) (A) (B) (A) (A) (B) (B) (A)
                 (B) (A) (A) (B) (B) (A) (B) (A) (B) (A) (B) (B)
                 (A) (B) (A) (A) (B) (B) (A) (A) (B) (B) (B) (A)
                 (B) (A) (A) (B) (B) (B) (A) (A) (B) (A) (A) (A)
                 (B) (B) (A) (B) (A) (B) (B) (A) (A) (B) (A) (B)
                 (A) (B) (B) (A) (B) (A) (A) (B) (B) (A) (B) (A)
                 (A) (B) (B) (A) (B) (A) (A) (B) (A) (A) (B) (B)
                 (A) (B) (A) (B) (A) (B) (A) (B) (A) (B) (A) (B)
                 (A) (A) (B) (B) (A) (A) (A) (B) (B) (A) (B) (A)
                 (B) (B) (A) (A) (B) (A) (B) (B) (A) (A) (B) (B)
                 (A) (B) (B) (A) (B)
 The electronic state of the initial guess is 1-A.
 Integral accuracy reduced to 1.0D-05 until final iterations.
 Initial convergence to 1.0D-05 achieved.  Increase integral accuracy.
 SCF Done:  E(RHF) =  -841.346480471     A.U. after   16 cycles
            NFock= 16  Conv=0.44D-08     -V/T= 2.0013
 ExpMin= 1.22D-01 ExpMax= 6.67D+03 ExpMxC= 2.28D+02 IAcc=3 IRadAn=         5 AccDes= 0.00D+00
 HarFok:  IExCor=  205 AccDes= 0.00D+00 IRadAn=         5 IDoV=-2 UseB2=F ITyADJ=14
 ICtDFT= 12500011 ScaDFX=  1.000000  1.000000  1.000000  1.000000
 GSVD:  LWork=        -660 too small for GESVD, short by        2750 words or        2750 for optimal perf.
 NROrb=    356 NOA=    51 NOB=    51 NVA=   305 NVB=   305

 **** Warning!!: The largest alpha MO coefficient is  0.12494265D+02

 Estimated scratch disk usage=  1710378019 words.
 Actual    scratch disk usage=  1288528931 words.
 (rs|ai) integrals will be sorted in core.
 ANorm=    0.1455667779D+01
 E2 =    -0.2857419813D+01 EUMP2 =    -0.84420390028455D+03

 **********************************************************************

            Population analysis using the SCF Density.

 **********************************************************************

 Orbital symmetries:
       Occupied  (A) (B) (A) (B) (B) (A) (B) (A) (A) (B) (A) (B)
                 (A) (B) (A) (B) (B) (A) (B) (A) (B) (A) (A) (B)
                 (A) (B) (A) (A) (B) (B) (A) (A) (B) (B) (A) (A)
                 (B) (A) (B) (B) (A) (A) (A) (B) (B) (A) (B) (A)
                 (A) (B) (B) (A) (A) (B) (A) (B) (B) (A) (B) (A)
                 (A) (B) (B) (B) (A) (A) (B) (B) (A) (A) (B) (B)
                 (A)
       Virtual   (A) (B) (A) (B) (B) (A) (A) (B) (A) (B) (A) (A)
                 (B) (A) (B) (A) (B) (A) (B) (B) (A) (B) (A) (A)
                 (B) (A) (B) (B) (A) (B) (A) (A) (B) (A) (A) (B)
                 (B) (A) (A) (B) (B) (A) (A) (B) (B) (A) (B) (A)
                 (B) (A) (B) (B) (A) (A) (B) (A) (B) (A) (B) (A)
                 (B) (B) (A) (A) (B) (A) (B) (B) (A) (B) (A) (A)
                 (B) (A) (B) (A) (B) (A) (B) (A) (B) (A) (B) (B)
                 (A) (A) (B) (B) (A) (A) (B) (A) (A) (B) (A) (B)
                 (B) (A) (A) (B) (B) (A) (B) (A) (B) (B) (A) (B)
                 (A) (B) (B) (A) (A) (B) (A) (B) (A) (B) (A) (B)
                 (A) (B) (A) (B) (B) (B) (A) (A) (B) (A) (B) (A)
                 (B) (A) (A) (B) (A) (B) (B) (A) (B) (A) (A) (B)
                 (A) (B) (B) (A) (B) (A) (A) (B) (B) (A) (B) (B)
                 (A) (B) (A) (A) (B) (A) (B) (A) (B) (B) (A) (A)
                 (B) (A) (A) (B) (B) (A) (B) (A) (A) (B) (A) (B)
                 (A) (B) (A) (B) (A) (A) (B) (B) (A) (A) (B) (A)
                 (B) (A) (A) (B) (B) (A) (A) (B) (B) (A) (B) (B)
                 (A) (B) (A) (B) (A) (B) (A) (B) (A) (B) (B) (B)
                 (A) (B) (A) (A) (B) (A) (A) (B) (A) (B) (A) (B)
                 (A) (B) (A) (B) (A) (B) (B) (A) (B) (A) (B) (A)
                 (A) (B) (B) (A) (B) (A) (A) (B) (B) (A) (B) (A)
                 (A) (B) (B) (A) (B) (A) (A) (B) (A) (A) (B) (B)
                 (B) (A) (A) (B) (B) (A) (A) (B) (A) (A) (B) (B)
                 (A) (A) (B) (B) (A) (A) (A) (B) (B) (A) (B) (B)
                 (A) (A) (B) (A) (B) (B) (A) (B) (A) (B) (A) (B)
                 (A) (B) (B) (A) (B)
 The electronic state is 1-A.
 Alpha  occ. eigenvalues --  -11.25979 -11.25891 -11.25331 -11.25331 -11.25256
 Alpha  occ. eigenvalues --  -11.25256 -11.25021 -11.25021 -11.24606 -11.24562
 Alpha  occ. eigenvalues --  -11.24562 -11.24470 -11.24419 -11.24419 -11.24295
 Alpha  occ. eigenvalues --  -11.24295 -11.24159 -11.24159 -11.24003 -11.24002
 Alpha  occ. eigenvalues --  -11.23861 -11.23860  -1.19621  -1.16888  -1.14170
 Alpha  occ. eigenvalues --   -1.10765  -1.07774  -1.06348  -1.03272  -1.01497
 Alpha  occ. eigenvalues --   -1.00004  -0.97873  -0.96833  -0.86990  -0.86709
 Alpha  occ. eigenvalues --   -0.83482  -0.83187  -0.82746  -0.78514  -0.75820
 Alpha  occ. eigenvalues --   -0.72313  -0.71050  -0.68226  -0.67762  -0.67377
 Alpha  occ. eigenvalues --   -0.63846  -0.63757  -0.62546  -0.59781  -0.59765
 Alpha  occ. eigenvalues --   -0.59427  -0.58719  -0.58108  -0.57630  -0.55914
 Alpha  occ. eigenvalues --   -0.54984  -0.54292  -0.52829  -0.51913  -0.51522
 Alpha  occ. eigenvalues --   -0.49629  -0.49564  -0.48474  -0.46599  -0.46425
 Alpha  occ. eigenvalues --   -0.44527  -0.40224  -0.38488  -0.36843  -0.32802
 Alpha  occ. eigenvalues --   -0.30290  -0.27407  -0.26762
 Alpha virt. eigenvalues --    0.06744   0.06887   0.10490   0.12974   0.16607
 Alpha virt. eigenvalues --    0.18173   0.18526   0.18895   0.19148   0.20327
 Alpha virt. eigenvalues --    0.20874   0.21295   0.21986   0.23375   0.24320
 Alpha virt. eigenvalues --    0.24951   0.25950   0.27023   0.27365   0.28085
 Alpha virt. eigenvalues --    0.28739   0.30423   0.31813   0.36953   0.37307
 Alpha virt. eigenvalues --    0.39882   0.39904   0.41525   0.41840   0.43725
 Alpha virt. eigenvalues --    0.43876   0.45460   0.45987   0.46858   0.47344
 Alpha virt. eigenvalues --    0.47425   0.48537   0.49692   0.51541   0.51959
 Alpha virt. eigenvalues --    0.54038   0.58176   0.60173   0.61855   0.62319
 Alpha virt. eigenvalues --    0.63112   0.65465   0.65590   0.65996   0.66101
 Alpha virt. eigenvalues --    0.66404   0.67173   0.67697   0.68121   0.68827
 Alpha virt. eigenvalues --    0.69145   0.69265   0.69728   0.70003   0.71321
 Alpha virt. eigenvalues --    0.71443   0.71652   0.72062   0.72297   0.73629
 Alpha virt. eigenvalues --    0.73991   0.74332   0.74670   0.74822   0.75619
 Alpha virt. eigenvalues --    0.75745   0.76215   0.76467   0.77126   0.77768
 Alpha virt. eigenvalues --    0.78263   0.78588   0.79512   0.80235   0.81139
 Alpha virt. eigenvalues --    0.81794   0.82087   0.82530   0.85129   0.85136
 Alpha virt. eigenvalues --    0.86538   0.87038   0.88059   0.88660   0.88729
 Alpha virt. eigenvalues --    0.88969   0.90084   0.91101   0.91674   0.92306
 Alpha virt. eigenvalues --    0.93154   0.93449   0.94490   0.95991   0.96203
 Alpha virt. eigenvalues --    0.97429   0.98004   0.99525   0.99662   1.01137
 Alpha virt. eigenvalues --    1.02222   1.03124   1.04054   1.08731   1.09003
 Alpha virt. eigenvalues --    1.09642   1.09671   1.10094   1.11345   1.11356
 Alpha virt. eigenvalues --    1.12491   1.13139   1.13888   1.14091   1.14395
 Alpha virt. eigenvalues --    1.14968   1.15605   1.15648   1.15855   1.16600
 Alpha virt. eigenvalues --    1.18069   1.18086   1.18758   1.19987   1.21957
 Alpha virt. eigenvalues --    1.22416   1.22896   1.22944   1.23545   1.24866
 Alpha virt. eigenvalues --    1.25081   1.26191   1.26798   1.27578   1.28419
 Alpha virt. eigenvalues --    1.29136   1.29879   1.30648   1.31196   1.33006
 Alpha virt. eigenvalues --    1.33762   1.34203   1.34264   1.35238   1.37946
 Alpha virt. eigenvalues --    1.38088   1.41956   1.42787   1.44099   1.48086
 Alpha virt. eigenvalues --    1.48527   1.51916   1.52841   1.55780   1.56170
 Alpha virt. eigenvalues --    1.57633   1.58771   1.60603   1.62490   1.62496
 Alpha virt. eigenvalues --    1.63898   1.64569   1.65629   1.65884   1.67589
 Alpha virt. eigenvalues --    1.68221   1.70040   1.70494   1.71787   1.73464
 Alpha virt. eigenvalues --    1.73901   1.74465   1.75038   1.76620   1.77235
 Alpha virt. eigenvalues --    1.77421   1.78820   1.80153   1.80763   1.81869
 Alpha virt. eigenvalues --    1.83244   1.83967   1.85099   1.85797   1.86498
 Alpha virt. eigenvalues --    1.87177   1.88417   1.89327   1.89441   1.90344
 Alpha virt. eigenvalues --    1.90638   1.92234   1.92315   1.92716   1.92971
 Alpha virt. eigenvalues --    1.92993   1.94135   1.94678   1.96131   1.96326
 Alpha virt. eigenvalues --    1.96440   1.97304   1.97752   1.98349   2.00771
 Alpha virt. eigenvalues --    2.01078   2.01736   2.02282   2.03188   2.03632
 Alpha virt. eigenvalues --    2.04379   2.04539   2.06836   2.06851   2.08517
 Alpha virt. eigenvalues --    2.08665   2.08946   2.09748   2.10632   2.11715
 Alpha virt. eigenvalues --    2.12817   2.13153   2.14325   2.14725   2.14811
 Alpha virt. eigenvalues --    2.16328   2.16525   2.16999   2.18005   2.19610
 Alpha virt. eigenvalues --    2.19727   2.21847   2.22616   2.22630   2.23412
 Alpha virt. eigenvalues --    2.25785   2.26477   2.27714   2.27719   2.30001
 Alpha virt. eigenvalues --    2.30774   2.32733   2.33825   2.35668   2.36416
 Alpha virt. eigenvalues --    2.37064   2.37677   2.38003   2.39892   2.41091
 Alpha virt. eigenvalues --    2.42546   2.43525   2.45284   2.46238   2.47859
 Alpha virt. eigenvalues --    2.49217   2.51094   2.51302   2.54028   2.57106
 Alpha virt. eigenvalues --    2.57747   2.59131   2.62008   2.63798   2.64187
 Alpha virt. eigenvalues --    2.67678   2.68911   2.70465   2.71623   2.73060
 Alpha virt. eigenvalues --    2.74613   2.77275   2.79125   2.80985   2.83822
 Alpha virt. eigenvalues --    2.84524   2.87536   2.91265   2.92857   2.93976
 Alpha virt. eigenvalues --    2.99679   2.99704   3.02057   3.03415   3.04777
 Alpha virt. eigenvalues --    3.04842   3.07024   3.07732   3.12325   3.13066
 Alpha virt. eigenvalues --    3.13745   3.16432   3.22535   3.23358   3.33523
 Alpha virt. eigenvalues --    3.67639   3.68530   3.75088   3.88200   3.94045
          Condensed to atoms (all electrons):
 Mulliken charges:
               1
     1  C   -0.015994
     2  C   -0.008276
     3  C    0.000731
     4  C   -0.148252
     5  C   -0.074906
     6  C    0.021975
     7  C    0.021767
     8  C    0.036000
     9  C   -0.088120
    10  C    0.027806
    11  C    0.027806
    12  C   -0.088120
    13  C    0.036000
    14  C    0.021767
    15  C   -0.074906
    16  C    0.021975
    17  C   -0.015994
    18  C   -0.008276
    19  C    0.000731
    20  C   -0.148252
    21  C    0.040780
    22  C    0.040780
    23  H    0.029053
    24  H    0.029107
    25  H    0.050845
    26  H    0.017836
    27  H    0.019175
    28  H    0.020752
    29  H    0.019720
    30  H    0.019720
    31  H    0.020752
    32  H    0.019175
    33  H    0.017836
    34  H    0.029053
    35  H    0.029107
    36  H    0.050845
 Sum of Mulliken charges =  -0.00000
 Mulliken charges with hydrogens summed into heavy atoms:
               1
     1  C    0.013059
     2  C    0.020830
     3  C    0.051576
     4  C   -0.148252
     5  C   -0.074906
     6  C    0.039811
     7  C    0.040942
     8  C    0.056752
     9  C   -0.088120
    10  C    0.047526
    11  C    0.047526
    12  C   -0.088120
    13  C    0.056752
    14  C    0.040942
    15  C   -0.074906
    16  C    0.039811
    17  C    0.013059
    18  C    0.020830
    19  C    0.051576
    20  C   -0.148252
    21  C    0.040780
    22  C    0.040780
 Electronic spatial extent (au):  <R**2>=           5804.9812
 Charge=              0.0000 electrons
 Dipole moment (field-independent basis, Debye):
    X=              0.0000    Y=             -0.0000    Z=              0.0563  Tot=              0.0563
 Unable to Open any file for archive entry.
 1\1\GINC-NODE01\SP\RMP2-FC\CC-pVDZ\C22H14\XUHJ\11-Oct-2024\0\\#T MP2/c
 c-pVDZ symm=veryloose\\c1ccc2c(c1)ccc1ccc3ccc4ccccc4c3c12\\0,1\C,0,0.6
 55047,3.304375,-2.571878\C,0,1.136014,1.977161,-2.583875\C,0,0.910449,
 1.140003,-1.506705\C,0,0.192787,1.575133,-0.360983\C,0,-0.186294,2.954
 587,-0.31039\C,0,0.018489,3.78327,-1.443604\C,0,-0.682553,3.507054,0.9
 12902\C,0,-0.682553,2.758742,2.053987\C,0,-0.324803,1.371734,2.033143\
 C,0,-0.20476,0.652954,3.258335\C,0,0.20476,-0.652954,3.258335\C,0,0.32
 4803,-1.371734,2.033143\C,0,0.682553,-2.758742,2.053987\C,0,0.682553,-
 3.507054,0.912902\C,0,0.186294,-2.954587,-0.31039\C,0,-0.018489,-3.783
 27,-1.443604\C,0,-0.655047,-3.304375,-2.571878\C,0,-1.136014,-1.977161
 ,-2.583875\C,0,-0.910449,-1.140003,-1.506705\C,0,-0.192787,-1.575133,-
 0.360983\C,0,0.052537,-0.722355,0.795826\C,0,-0.052537,0.722355,0.7958
 26\H,0,0.818998,3.957166,-3.434273\H,0,1.700223,1.607697,-3.445227\H,0
 ,1.31153,0.127713,-1.531687\H,0,-0.308707,4.826405,-1.392098\H,0,-0.98
 3622,4.558753,0.931889\H,0,-0.961471,3.204963,3.013383\H,0,-0.388551,1
 .183143,4.197479\H,0,0.388551,-1.183143,4.197479\H,0,0.961471,-3.20496
 3,3.013383\H,0,0.983622,-4.558753,0.931889\H,0,0.308707,-4.826405,-1.3
 92098\H,0,-0.818998,-3.957166,-3.434273\H,0,-1.700223,-1.607697,-3.445
 227\H,0,-1.31153,-0.127713,-1.531687\\Version=ES64L-G16RevC.01\State=1
 -A\HF=-841.3464805\MP2=-844.2039003\RMSD=4.442e-09\PG=C02 [X(C22H14)]\
 \@
 The archive entry for this job was punched.


 KNOWLEDGE IS CHIMERA - FOR BEYOND IT LIES OTHER KNOWLEDGE,
 AND THE INCOMPLETENESS OF WHAT IS KNOWN RENDERS THE KNOWING FALSE.
     -- THE THOMAS COVENANT CHRONICLES
 Job cpu time:       0 days  0 hours  8 minutes  9.0 seconds.
 Elapsed time:       0 days  0 hours  1 minutes  1.1 seconds.
 File lengths (MBytes):  RWF=   9915 Int=      0 D2E=      0 Chk=     10 Scr=      1
 Normal termination of Gaussian 16 at Fri Oct 11 15:35:33 2024.
