 Entering Gaussian System, Link 0=g16
 Initial command:
 /opt/g16/l1.exe "/tmp/Gau-2538744.inp" -scrdir="/tmp/"
 Entering Link 1 = /opt/g16/l1.exe PID=   2538746.
  
 Copyright (c) 1988-2019, Gaussian, Inc.  All Rights Reserved.
  
 This is part of the Gaussian(R) 16 program.  It is based on
 the Gaussian(R) 09 system (copyright 2009, Gaussian, Inc.),
 the Gaussian(R) 03 system (copyright 2003, Gaussian, Inc.),
 the Gaussian(R) 98 system (copyright 1998, Gaussian, Inc.),
 the Gaussian(R) 94 system (copyright 1995, Gaussian, Inc.),
 the Gaussian 92(TM) system (copyright 1992, Gaussian, Inc.),
 the Gaussian 90(TM) system (copyright 1990, Gaussian, Inc.),
 the Gaussian 88(TM) system (copyright 1988, Gaussian, Inc.),
 the Gaussian 86(TM) system (copyright 1986, Carnegie Mellon
 University), and the Gaussian 82(TM) system (copyright 1983,
 Carnegie Mellon University). Gaussian is a federally registered
 trademark of Gaussian, Inc.
  
 This software contains proprietary and confidential information,
 including trade secrets, belonging to Gaussian, Inc.
  
 This software is provided under written license and may be
 used, copied, transmitted, or stored only in accord with that
 written license.
  
 The following legend is applicable only to US Government
 contracts under FAR:
  
                    RESTRICTED RIGHTS LEGEND
  
 Use, reproduction and disclosure by the US Government is
 subject to restrictions as set forth in subparagraphs (a)
 and (c) of the Commercial Computer Software - Restricted
 Rights clause in FAR 52.227-19.
  
 Gaussian, Inc.
 340 Quinnipiac St., Bldg. 40, Wallingford CT 06492
  
  
 ---------------------------------------------------------------
 Warning -- This program may not be used in any manner that
 competes with the business of Gaussian, Inc. or will provide
 assistance to any competitor of Gaussian, Inc.  The licensee
 of this program is prohibited from giving any competitor of
 Gaussian, Inc. access to this program.  By using this program,
 the user acknowledges that Gaussian, Inc. is engaged in the
 business of creating and licensing software in the field of
 computational chemistry and represents and warrants to the
 licensee that it is not a competitor of Gaussian, Inc. and that
 it will not use this program in any manner prohibited above.
 ---------------------------------------------------------------
  

 Cite this work as:
 Gaussian 16, Revision C.01,
 M. J. Frisch, G. W. Trucks, H. B. Schlegel, G. E. Scuseria, 
 M. A. Robb, J. R. Cheeseman, G. Scalmani, V. Barone, 
 G. A. Petersson, H. Nakatsuji, X. Li, M. Caricato, A. V. Marenich, 
 J. Bloino, B. G. Janesko, R. Gomperts, B. Mennucci, H. P. Hratchian, 
 J. V. Ortiz, A. F. Izmaylov, J. L. Sonnenberg, D. Williams-Young, 
 F. Ding, F. Lipparini, F. Egidi, J. Goings, B. Peng, A. Petrone, 
 T. Henderson, D. Ranasinghe, V. G. Zakrzewski, J. Gao, N. Rega, 
 G. Zheng, W. Liang, M. Hada, M. Ehara, K. Toyota, R. Fukuda, 
 J. Hasegawa, M. Ishida, T. Nakajima, Y. Honda, O. Kitao, H. Nakai, 
 T. Vreven, K. Throssell, J. A. Montgomery, Jr., J. E. Peralta, 
 F. Ogliaro, M. J. Bearpark, J. J. Heyd, E. N. Brothers, K. N. Kudin, 
 V. N. Staroverov, T. A. Keith, R. Kobayashi, J. Normand, 
 K. Raghavachari, A. P. Rendell, J. C. Burant, S. S. Iyengar, 
 J. Tomasi, M. Cossi, J. M. Millam, M. Klene, C. Adamo, R. Cammi, 
 J. W. Ochterski, R. L. Martin, K. Morokuma, O. Farkas, 
 J. B. Foresman, and D. J. Fox, Gaussian, Inc., Wallingford CT, 2019.
 
 ******************************************
 Gaussian 16:  ES64L-G16RevC.01  3-Jul-2019
                11-Oct-2024 
 ******************************************
 %nprocshared=8
 Will use up to    8 processors via shared memory.
 %mem=8800MB
 -----------------------------
 #T MP2/cc-pVDZ symm=veryloose
 -----------------------------
 ----------------------------------
 c1ccc2cc3cc4c(ccc5ccccc54)cc3cc2c1
 ----------------------------------
 Symbolic Z-matrix:
 Charge =  0 Multiplicity = 1
 C                     5.30202   2.78504   0. 
 C                     5.69955   1.41144   0. 
 C                     4.75698   0.41552   0. 
 C                     3.35747   0.72318   0. 
 C                     2.37458  -0.27127   0. 
 C                     1.00259   0.04176   0. 
 C                     0.       -0.96174   0. 
 C                    -1.35524  -0.66442   0. 
 C                    -1.75124   0.73267   0. 
 C                    -3.15493   1.06695   0. 
 C                    -4.11137   0.10384   0. 
 C                    -3.76916  -1.29995   0. 
 C                    -4.78122  -2.28407   0. 
 C                    -4.4677   -3.63551   0. 
 C                    -3.11965  -4.03143   0. 
 C                    -2.11011  -3.0767    0. 
 C                    -2.40007  -1.69557   0. 
 C                    -0.7832    1.72826   0. 
 C                     0.60105   1.43265   0. 
 C                     1.59229   2.43172   0. 
 C                     2.95423   2.11634   0. 
 C                     3.97336   3.12387   0. 
 H                     6.06822   3.56594   0. 
 H                     6.76435   1.16035   0. 
 H                     5.05874  -0.63651   0. 
 H                     2.6793   -1.32278   0. 
 H                     0.33736  -2.00003   0. 
 H                    -3.43081   2.12581   0. 
 H                    -5.17167   0.37439   0. 
 H                    -5.82682  -1.96062   0. 
 H                    -5.26286  -4.38667   0. 
 H                    -2.8602   -5.09415   0. 
 H                    -1.07243  -3.41521   0. 
 H                    -1.09793   2.77661   0. 
 H                     1.28665   3.48286   0. 
 H                     3.66671   4.17447   0. 
 
                    Distance matrix (angstroms):
                    1          2          3          4          5
     1  C    0.000000
     2  C    1.429967   0.000000
     3  C    2.431394   1.371235   0.000000
     4  C    2.834177   2.441117   1.432929   0.000000
     5  C    4.232126   3.726512   2.479413   1.398206   0.000000
     6  C    5.100066   4.892586   3.772942   2.451480   1.407242
     7  C    6.492284   6.173880   4.952340   3.756529   2.472930
     8  C    7.497855   7.353854   6.206886   4.912737   3.750482
     9  C    7.345792   7.481637   6.515935   5.108709   4.246202
    10  C    8.629709   8.861178   7.938682   6.521464   5.689143
    11  C    9.787782   9.897668   8.873818   7.494466   6.496785
    12  C    9.948537   9.849262   8.696998   7.408224   6.229261
    13  C   11.285721  11.113197   9.912866   8.676500   7.433492
    14  C   11.690634  11.350975  10.074997   8.957198   7.624630
    15  C   10.834609  10.363542   9.045253   8.034880   6.657732
    16  C    9.449850   9.007449   7.704058   6.658338   5.289889
    17  C    8.910558   8.675095   7.461904   6.244961   4.982562
    18  C    6.176305   6.490488   5.693582   4.260906   3.737606
    19  C    4.891634   5.098540   4.278581   2.846253   2.459413
    20  C    3.726522   4.232089   3.752377   2.456620   2.813918
    21  C    2.441168   2.834376   2.478447   1.450346   2.456961
    22  C    1.371190   2.431495   2.819434   2.478435   3.752735
    23  H    1.094021   2.185823   3.412407   3.928044   5.326084
    24  H    2.185866   1.094007   2.141105   3.434823   4.617318
    25  H    3.430186   2.145862   1.094455   2.177862   2.708892
    26  H    4.873688   4.074043   2.708954   2.155426   1.094781
    27  H    6.895266   6.355401   5.036653   4.066555   2.671868
    28  H    8.757676   9.158259   8.364502   6.931667   6.280804
    29  H   10.747530  10.920568   9.928730   8.536262   7.573820
    30  H   12.098443  12.009490  10.847246   9.568376   8.373580
    31  H   12.769113  12.401313  11.111179  10.021011   8.675665
    32  H   11.344754  10.751368   9.400949   8.514732   7.117804
    33  H    8.892510   8.316022   6.975422   6.062198   4.665435
    34  H    6.399962   6.933214   6.313058   4.905828   4.620377
    35  H    4.075558   4.874881   4.631601   3.450233   3.908585
    36  H    2.145876   3.430278   3.913871   3.465117   4.629702
                    6          7          8          9         10
     6  C    0.000000
     7  C    1.418517   0.000000
     8  C    2.461311   1.387469   0.000000
     9  C    2.839178   2.436765   1.452120   0.000000
    10  C    4.282062   3.750890   2.497307   1.442953   0.000000
    11  C    5.114337   4.247210   2.861200   2.442465   1.357331
    12  C    4.956790   3.784299   2.496178   2.864182   2.445305
    13  C    6.233932   4.960704   3.789538   4.275683   3.724801
    14  C    6.591390   5.206671   4.302885   5.143941   4.882264
    15  C    5.795147   4.376668   3.801306   4.956729   5.098506
    16  C    4.406097   2.987580   2.527633   3.826230   4.273346
    17  C    3.820525   2.509749   1.467975   2.513428   2.863802
    18  C    2.456291   2.801692   2.460105   1.388629   2.462199
    19  C    1.447691   2.468668   2.867880   2.454226   3.773744
    20  C    2.461643   3.748460   4.274808   3.750458   4.939503
    21  C    2.848293   4.266382   5.128752   4.904684   6.198631
    22  C    4.280754   5.699099   6.537968   6.203934   7.419123
    23  H    6.170941   7.571211   8.544223   8.316935   9.555709
    24  H    5.869338   7.089410   8.322112   8.526321   9.919725
    25  H    4.112462   5.069181   6.414036   6.946248   8.388453
    26  H    2.161787   2.703521   4.087906   4.884112   6.304693
    27  H    2.147420   1.091724   2.156096   3.439455   4.647848
    28  H    4.898808   4.615557   3.477548   2.182157   1.094203
    29  H    6.183216   5.341478   3.955282   3.439146   2.132339
    30  H    7.116907   5.911815   4.655659   4.885096   4.037968
    31  H    7.672480   6.279167   5.396734   6.207992   5.846830
    32  H    6.426407   5.025693   4.678404   5.931409   6.168153
    33  H    4.031916   2.677620   2.765294   4.203053   4.942329
    34  H    3.448424   3.896238   3.450630   2.145809   2.674725
    35  H    3.452806   4.627081   4.917260   4.097840   5.056109
    36  H    4.916992   6.310732   6.973860   6.418730   7.496091
                   11         12         13         14         15
    11  C    0.000000
    12  C    1.444905   0.000000
    13  C    2.480083   1.411647   0.000000
    14  C    3.756289   2.437781   1.387327   0.000000
    15  C    4.252527   2.807637   2.411242   1.404995   0.000000
    16  C    3.757771   2.430892   2.786225   2.422912   1.389488
    17  C    2.483230   1.425101   2.452793   2.835219   2.444183
    18  C    3.703430   4.252761   5.664174   6.507344   6.215544
    19  C    4.896182   5.154202   6.540853   7.167876   6.610577
    20  C    6.160413   6.532264   7.928444   8.575242   7.998418
    21  C    7.346614   7.541546   8.899475   9.389824   8.642167
    22  C    8.630370   8.917213  10.290205  10.813910  10.075169
    23  H   10.752219  10.975017  12.326110  12.761923  11.922126
    24  H   10.926915  10.817019  12.048410  12.213082  11.164591
    25  H    9.199941   8.852787   9.976929   9.987344   8.855024
    26  H    6.938909   6.448499   7.522196   7.511885   6.400360
    27  H    4.921123   4.165763   5.126453   5.075771   4.009678
    28  H    2.133426   3.442430   4.612007   5.853880   6.165096
    29  H    1.094274   2.184140   2.686977   4.071220   4.860251
    30  H    2.684174   2.161123   1.094484   2.156947   3.408372
    31  H    4.635804   3.429140   2.157066   1.093861   2.172459
    32  H    5.346456   3.901559   3.403954   2.170653   1.093936
    33  H    4.649609   3.427337   3.877444   3.402412   2.137948
    34  H    4.027957   4.873783   6.259152   7.243655   7.101880
    35  H    6.368383   6.959629   8.371165   9.153343   8.710911
    36  H    8.778861   9.233706  10.633911  11.276716  10.648539
                   16         17         18         19         20
    16  C    0.000000
    17  C    1.411234   0.000000
    18  C    4.984805   3.786405   0.000000
    19  C    5.261613   4.335027   1.415468   0.000000
    20  C    6.637052   5.742252   2.477462   1.407375   0.000000
    21  C    7.253632   6.572606   3.757524   2.450484   1.397978
    22  C    8.686519   7.990466   4.957074   3.772622   2.479628
    23  H   10.536122   9.969730   7.093599   5.868640   4.617410
    24  H    9.834060   9.599110   7.568892   6.169313   5.326035
    25  H    7.572774   7.533617   6.302412   4.914505   4.629292
    26  H    5.100463   5.093034   4.614955   3.451306   3.908699
    27  H    2.673827   2.754309   3.893043   3.442785   4.606002
    28  H    5.367522   3.957950   2.677285   4.091010   5.032401
    29  H    4.613363   3.459264   4.592558   5.868918   7.069916
    30  H    3.880657   3.436983   6.248670   7.268546   8.621821
    31  H    3.414071   3.929075   7.580221   8.261354   9.668693
    32  H    2.152384   3.429589   7.131564   7.387782   8.744337
    33  H    1.091502   2.172506   5.151596   5.128572   6.425525
    34  H    5.940174   4.657889   1.094573   2.166284   2.712238
    35  H    7.386863   6.356729   2.713467   2.161809   1.094668
    36  H    9.270978   8.441748   5.077955   4.112886   2.709312
                   21         22         23         24         25
    21  C    0.000000
    22  C    1.433087   0.000000
    23  H    3.434870   2.141006   0.000000
    24  H    3.928229   3.412486   2.504288   0.000000
    25  H    3.465136   3.913888   4.322000   2.477468   0.000000
    26  H    3.450096   4.631122   5.948481   4.780543   2.476423
    27  H    4.877753   6.282895   7.988918   7.161998   4.914322
    28  H    6.385040   7.471128   9.607580  10.240771   8.927641
    29  H    8.310508   9.549403  11.684229  11.961870  10.280229
    30  H    9.681340  11.040627  13.116209  12.972202  10.965789
    31  H   10.479016  11.904454  13.843326  13.244752  10.981766
    32  H    9.262761  10.688000  12.438407  11.478275   9.087358
    33  H    6.841933   8.259513   9.986265   9.074743   6.731448
    34  H    4.105600   5.083166   7.209500   8.026695   7.039458
    35  H    2.155964   2.710584   4.782298   5.949729   5.585503
    36  H    2.177962   1.094438   2.477419   4.322074   5.008322
                   26         27         28         29         30
    26  H    0.000000
    27  H    2.437899   0.000000
    28  H    7.016142   5.587631   0.000000
    29  H    8.032320   5.998939   2.469426   0.000000
    30  H    8.530001   6.164304   4.737065   2.425181   0.000000
    31  H    8.512665   6.087579   6.765268   4.761935   2.490734
    32  H    6.701440   4.449494   7.242475   5.936991   4.315072
    33  H    4.295785   1.997564   6.022030   5.582546   4.971921
    34  H    5.574274   4.987615   2.421948   4.729266   6.693555
    35  H    5.003366   5.564456   4.908765   7.167456   8.957280
    36  H    5.585226   7.014908   7.387265   9.620678  11.303376
                   31         32         33         34         35
    31  H    0.000000
    32  H    2.504665   0.000000
    33  H    4.301566   2.452539   0.000000
    34  H    8.286086   8.065633   6.191871   0.000000
    35  H   10.238439   9.526880   7.290310   2.486971   0.000000
    36  H   12.370545  11.336128   8.947774   4.965461   2.478506
                   36
    36  H    0.000000
 Framework group  CS[SG(C22H14)]
 Deg. of freedom    69
                         Standard orientation:                         
 ---------------------------------------------------------------------
 Center     Atomic      Atomic             Coordinates (Angstroms)
 Number     Number       Type             X           Y           Z
 ---------------------------------------------------------------------
      1          6           0        5.302022   -2.785037    0.000000
      2          6           0        5.699548   -1.411436    0.000000
      3          6           0        4.756977   -0.415522    0.000000
      4          6           0        3.357465   -0.723179    0.000000
      5          6           0        2.374581    0.271265    0.000000
      6          6           0        1.002594   -0.041756    0.000000
      7          6           0       -0.000000    0.961736   -0.000000
      8          6           0       -1.355238    0.664416   -0.000000
      9          6           0       -1.751235   -0.732666   -0.000000
     10          6           0       -3.154932   -1.066954   -0.000000
     11          6           0       -4.111366   -0.103843   -0.000000
     12          6           0       -3.769155    1.299953   -0.000000
     13          6           0       -4.781216    2.284067   -0.000000
     14          6           0       -4.467704    3.635506   -0.000000
     15          6           0       -3.119648    4.031430   -0.000000
     16          6           0       -2.110113    3.076696   -0.000000
     17          6           0       -2.400068    1.695571   -0.000000
     18          6           0       -0.783203   -1.728259    0.000000
     19          6           0        0.601052   -1.432645    0.000000
     20          6           0        1.592287   -2.431724    0.000000
     21          6           0        2.954226   -2.116342    0.000000
     22          6           0        3.973356   -3.123870    0.000000
     23          1           0        6.068225   -3.565943    0.000000
     24          1           0        6.764353   -1.160353    0.000000
     25          1           0        5.058737    0.636511    0.000000
     26          1           0        2.679304    1.322783    0.000000
     27          1           0        0.337362    2.000027   -0.000000
     28          1           0       -3.430807   -2.125809   -0.000000
     29          1           0       -5.171668   -0.374390   -0.000000
     30          1           0       -5.826816    1.960623   -0.000000
     31          1           0       -5.262865    4.386672   -0.000000
     32          1           0       -2.860196    5.094153   -0.000000
     33          1           0       -1.072431    3.415211   -0.000000
     34          1           0       -1.097934   -2.776607    0.000000
     35          1           0        1.286649   -3.482858    0.000000
     36          1           0        3.666705   -4.174470    0.000000
 ---------------------------------------------------------------------
 Rotational constants (GHZ):           0.9444328           0.1352592           0.1183145
   378 basis functions,   824 primitive gaussians,   400 cartesian basis functions
    73 alpha electrons       73 beta electrons
       nuclear repulsion energy      1508.3257440292 Hartrees.
 NAtoms=   36 NActive=   36 NUniq=   36 SFac= 1.00D+00 NAtFMM=   60 NAOKFM=F Big=F
 ExpMin= 1.22D-01 ExpMax= 6.67D+03 ExpMxC= 2.28D+02 IAcc=3 IRadAn=         5 AccDes= 0.00D+00
 Harris functional with IExCor=  205 and IRadAn=       5 diagonalized for initial guess.
 HarFok:  IExCor=  205 AccDes= 0.00D+00 IRadAn=         5 IDoV= 1 UseB2=F ITyADJ=14
 ICtDFT=  3500011 ScaDFX=  1.000000  1.000000  1.000000  1.000000
 FoFCou: FMM=F IPFlag=           0 FMFlag=      100000 FMFlg1=           0
         NFxFlg=           0 DoJE=T BraDBF=F KetDBF=T FulRan=T
         wScrn=  0.000000 ICntrl=       500 IOpCl=  0 I1Cent=   200000004 NGrid=           0
         NMat0=    1 NMatS0=      1 NMatT0=    0 NMatD0=    1 NMtDS0=    0 NMtDT0=    0
 Petite list used in FoFCou.
 Initial guess orbital symmetries:
       Occupied  (A') (A') (A') (A') (A') (A') (A') (A') (A') (A')
                 (A') (A') (A') (A') (A') (A') (A') (A') (A') (A')
                 (A') (A') (A') (A') (A') (A') (A') (A') (A') (A')
                 (A') (A') (A') (A') (A') (A') (A') (A') (A') (A')
                 (A') (A') (A') (A') (A') (A') (A') (A') (A') (A')
                 (A') (A') (A') (A') (A') (A') (A") (A") (A') (A')
                 (A') (A") (A') (A') (A') (A") (A") (A") (A") (A")
                 (A") (A") (A")
       Virtual   (A") (A") (A") (A") (A") (A") (A") (A") (A") (A')
                 (A') (A') (A') (A') (A') (A") (A') (A') (A') (A')
                 (A") (A') (A') (A') (A') (A') (A') (A') (A') (A')
                 (A') (A') (A') (A') (A') (A') (A') (A') (A') (A')
                 (A') (A') (A') (A') (A') (A') (A') (A") (A') (A')
                 (A") (A') (A') (A") (A') (A") (A') (A') (A') (A')
                 (A") (A') (A') (A') (A") (A') (A') (A') (A') (A")
                 (A') (A') (A') (A") (A') (A') (A") (A') (A") (A')
                 (A") (A") (A") (A") (A') (A") (A') (A') (A') (A')
                 (A') (A') (A") (A') (A") (A") (A') (A') (A') (A")
                 (A') (A') (A') (A") (A") (A") (A") (A") (A') (A')
                 (A') (A') (A") (A") (A') (A') (A') (A') (A') (A")
                 (A") (A') (A') (A') (A') (A') (A") (A") (A') (A")
                 (A") (A') (A") (A") (A') (A") (A') (A") (A') (A")
                 (A') (A") (A') (A') (A") (A') (A') (A") (A') (A')
                 (A') (A') (A') (A') (A') (A') (A') (A') (A") (A')
                 (A") (A') (A') (A") (A') (A") (A") (A') (A') (A')
                 (A') (A") (A') (A') (A') (A") (A') (A') (A") (A")
                 (A') (A') (A") (A') (A") (A') (A') (A') (A') (A')
                 (A') (A") (A') (A') (A') (A') (A") (A') (A') (A")
                 (A") (A') (A") (A") (A") (A') (A") (A') (A") (A')
                 (A") (A') (A') (A') (A") (A') (A') (A") (A') (A")
                 (A') (A") (A') (A') (A') (A') (A") (A') (A') (A')
                 (A") (A') (A") (A') (A') (A') (A") (A') (A') (A")
                 (A') (A') (A') (A") (A') (A') (A") (A') (A") (A')
                 (A') (A') (A") (A') (A") (A') (A") (A') (A') (A')
                 (A') (A') (A') (A') (A") (A') (A") (A') (A') (A')
                 (A") (A") (A') (A') (A') (A') (A') (A') (A') (A')
                 (A') (A') (A') (A') (A') (A') (A') (A') (A') (A')
                 (A') (A') (A') (A') (A') (A') (A') (A') (A') (A')
                 (A') (A') (A') (A') (A')
 The electronic state of the initial guess is 1-A'.
 Integral accuracy reduced to 1.0D-05 until final iterations.
 Initial convergence to 1.0D-05 achieved.  Increase integral accuracy.
 SCF Done:  E(RHF) =  -841.354421048     A.U. after   16 cycles
            NFock= 16  Conv=0.90D-08     -V/T= 2.0013
 ExpMin= 1.22D-01 ExpMax= 6.67D+03 ExpMxC= 2.28D+02 IAcc=3 IRadAn=         5 AccDes= 0.00D+00
 HarFok:  IExCor=  205 AccDes= 0.00D+00 IRadAn=         5 IDoV=-2 UseB2=F ITyADJ=14
 ICtDFT= 12500011 ScaDFX=  1.000000  1.000000  1.000000  1.000000
 GSVD:  LWork=        -660 too small for GESVD, short by        2750 words or        2750 for optimal perf.
 NROrb=    356 NOA=    51 NOB=    51 NVA=   305 NVB=   305

 **** Warning!!: The largest alpha MO coefficient is  0.15174920D+02

 Estimated scratch disk usage=  2958038560 words.
 Actual    scratch disk usage=  2228976160 words.
 (rs|ai) integrals will be sorted in core.
 ANorm=    0.1454297171D+01
 E2 =    -0.2845548226D+01 EUMP2 =    -0.84419996927408D+03

 **********************************************************************

            Population analysis using the SCF Density.

 **********************************************************************

 Orbital symmetries:
       Occupied  (A') (A') (A') (A') (A') (A') (A') (A') (A') (A')
                 (A') (A') (A') (A') (A') (A') (A') (A') (A') (A')
                 (A') (A') (A') (A') (A') (A') (A') (A') (A') (A')
                 (A') (A') (A') (A') (A') (A') (A') (A') (A') (A')
                 (A') (A') (A') (A') (A') (A') (A') (A') (A') (A')
                 (A') (A') (A') (A') (A') (A") (A') (A') (A") (A')
                 (A') (A") (A') (A') (A') (A") (A") (A") (A") (A")
                 (A") (A") (A")
       Virtual   (A") (A") (A") (A") (A") (A') (A') (A') (A") (A')
                 (A') (A") (A') (A') (A') (A') (A') (A') (A") (A')
                 (A') (A") (A') (A') (A") (A') (A') (A') (A") (A')
                 (A') (A') (A') (A') (A') (A') (A') (A') (A') (A')
                 (A') (A') (A') (A') (A') (A') (A') (A') (A") (A')
                 (A") (A') (A') (A') (A") (A") (A') (A') (A") (A')
                 (A") (A') (A') (A') (A') (A') (A") (A') (A') (A")
                 (A') (A') (A') (A") (A') (A') (A') (A") (A") (A')
                 (A") (A") (A") (A') (A") (A') (A') (A') (A") (A')
                 (A") (A') (A") (A') (A') (A') (A') (A') (A") (A')
                 (A') (A') (A") (A") (A') (A") (A") (A") (A') (A')
                 (A') (A") (A') (A") (A') (A') (A') (A') (A') (A')
                 (A') (A") (A") (A') (A') (A') (A') (A") (A") (A')
                 (A") (A") (A') (A") (A') (A") (A') (A") (A') (A")
                 (A') (A') (A") (A') (A") (A') (A') (A") (A') (A")
                 (A') (A') (A') (A') (A') (A') (A') (A') (A") (A')
                 (A') (A") (A') (A') (A") (A') (A") (A") (A') (A")
                 (A') (A') (A') (A') (A') (A") (A') (A") (A") (A")
                 (A') (A") (A') (A') (A') (A') (A') (A') (A") (A')
                 (A') (A') (A") (A") (A') (A") (A') (A") (A') (A')
                 (A") (A') (A") (A') (A") (A') (A') (A') (A") (A')
                 (A') (A") (A') (A') (A') (A") (A") (A') (A') (A')
                 (A") (A") (A') (A') (A') (A') (A") (A') (A") (A')
                 (A') (A') (A') (A') (A") (A') (A") (A') (A") (A')
                 (A') (A') (A') (A") (A') (A') (A") (A') (A") (A')
                 (A') (A') (A") (A') (A") (A') (A") (A') (A') (A')
                 (A') (A') (A') (A') (A") (A') (A") (A') (A') (A')
                 (A") (A") (A') (A') (A') (A') (A') (A') (A') (A')
                 (A') (A') (A') (A') (A') (A') (A') (A') (A') (A')
                 (A') (A') (A') (A') (A') (A') (A') (A') (A') (A')
                 (A') (A') (A') (A') (A')
 The electronic state is 1-A'.
 Alpha  occ. eigenvalues --  -11.25695 -11.25474 -11.25362 -11.25290 -11.25277
 Alpha  occ. eigenvalues --  -11.25195 -11.25182 -11.25153 -11.24699 -11.24676
 Alpha  occ. eigenvalues --  -11.24667 -11.24655 -11.24644 -11.24613 -11.24601
 Alpha  occ. eigenvalues --  -11.24573 -11.24531 -11.24525 -11.24516 -11.24464
 Alpha  occ. eigenvalues --  -11.24440 -11.24377  -1.19364  -1.17448  -1.14379
 Alpha  occ. eigenvalues --   -1.10724  -1.07598  -1.06431  -1.04234  -1.02373
 Alpha  occ. eigenvalues --   -1.00136  -0.98678  -0.95136  -0.89441  -0.85816
 Alpha  occ. eigenvalues --   -0.83802  -0.83193  -0.81279  -0.79879  -0.77423
 Alpha  occ. eigenvalues --   -0.71602  -0.71137  -0.69587  -0.67617  -0.66440
 Alpha  occ. eigenvalues --   -0.65088  -0.62795  -0.62059  -0.61102  -0.59981
 Alpha  occ. eigenvalues --   -0.59574  -0.59000  -0.58020  -0.56919  -0.56334
 Alpha  occ. eigenvalues --   -0.55393  -0.55120  -0.53055  -0.52879  -0.50999
 Alpha  occ. eigenvalues --   -0.50141  -0.48881  -0.48199  -0.47683  -0.46502
 Alpha  occ. eigenvalues --   -0.44219  -0.41422  -0.39574  -0.36442  -0.33931
 Alpha  occ. eigenvalues --   -0.30900  -0.28708  -0.24039
 Alpha virt. eigenvalues --    0.03496   0.08503   0.10999   0.13154   0.16554
 Alpha virt. eigenvalues --    0.18051   0.18500   0.18678   0.18712   0.19894
 Alpha virt. eigenvalues --    0.20268   0.20786   0.21966   0.22422   0.23940
 Alpha virt. eigenvalues --    0.24210   0.25578   0.26634   0.26659   0.28318
 Alpha virt. eigenvalues --    0.30496   0.33148   0.34110   0.36242   0.39064
 Alpha virt. eigenvalues --    0.39634   0.41094   0.41860   0.42390   0.43060
 Alpha virt. eigenvalues --    0.44210   0.44897   0.45967   0.46154   0.47264
 Alpha virt. eigenvalues --    0.48605   0.49429   0.50651   0.52021   0.52258
 Alpha virt. eigenvalues --    0.56785   0.58811   0.59333   0.62846   0.64195
 Alpha virt. eigenvalues --    0.64412   0.64952   0.65367   0.65467   0.66228
 Alpha virt. eigenvalues --    0.66798   0.67566   0.67765   0.68501   0.68712
 Alpha virt. eigenvalues --    0.69082   0.69531   0.70489   0.70720   0.71338
 Alpha virt. eigenvalues --    0.71512   0.71549   0.72755   0.73128   0.73228
 Alpha virt. eigenvalues --    0.73344   0.73421   0.74123   0.74193   0.75140
 Alpha virt. eigenvalues --    0.75435   0.76097   0.76581   0.76583   0.76953
 Alpha virt. eigenvalues --    0.77277   0.77804   0.78234   0.78978   0.79003
 Alpha virt. eigenvalues --    0.80944   0.82504   0.82576   0.82646   0.85963
 Alpha virt. eigenvalues --    0.85971   0.86342   0.87606   0.89072   0.89313
 Alpha virt. eigenvalues --    0.89600   0.89947   0.90343   0.91143   0.91598
 Alpha virt. eigenvalues --    0.92840   0.93085   0.93907   0.94751   0.95001
 Alpha virt. eigenvalues --    0.97169   0.98443   0.98958   1.00169   1.00645
 Alpha virt. eigenvalues --    1.03007   1.03793   1.04886   1.08459   1.09171
 Alpha virt. eigenvalues --    1.09569   1.10567   1.10742   1.11168   1.11407
 Alpha virt. eigenvalues --    1.12280   1.12955   1.13274   1.14474   1.15190
 Alpha virt. eigenvalues --    1.15783   1.15825   1.16587   1.16670   1.17799
 Alpha virt. eigenvalues --    1.18700   1.19399   1.19522   1.20441   1.20590
 Alpha virt. eigenvalues --    1.21532   1.21778   1.22350   1.23688   1.24193
 Alpha virt. eigenvalues --    1.24620   1.25228   1.26527   1.26710   1.27873
 Alpha virt. eigenvalues --    1.29474   1.29924   1.30373   1.31600   1.31787
 Alpha virt. eigenvalues --    1.32398   1.32978   1.33072   1.34062   1.35280
 Alpha virt. eigenvalues --    1.36406   1.38254   1.40824   1.44755   1.45721
 Alpha virt. eigenvalues --    1.52946   1.53503   1.54745   1.58606   1.59002
 Alpha virt. eigenvalues --    1.60914   1.61435   1.61895   1.63084   1.64252
 Alpha virt. eigenvalues --    1.64539   1.65664   1.66344   1.67443   1.68940
 Alpha virt. eigenvalues --    1.69529   1.69948   1.70658   1.71645   1.72490
 Alpha virt. eigenvalues --    1.72696   1.74274   1.74298   1.74533   1.77128
 Alpha virt. eigenvalues --    1.77286   1.78871   1.79112   1.79321   1.82217
 Alpha virt. eigenvalues --    1.83172   1.84100   1.84655   1.86321   1.87431
 Alpha virt. eigenvalues --    1.88081   1.88554   1.89885   1.90472   1.90531
 Alpha virt. eigenvalues --    1.90857   1.91169   1.91704   1.92074   1.92583
 Alpha virt. eigenvalues --    1.93552   1.93648   1.94613   1.95008   1.95716
 Alpha virt. eigenvalues --    1.97320   1.97500   1.99055   1.99165   2.00106
 Alpha virt. eigenvalues --    2.00360   2.01181   2.02046   2.03398   2.05186
 Alpha virt. eigenvalues --    2.05630   2.05678   2.06121   2.06381   2.06690
 Alpha virt. eigenvalues --    2.08046   2.08465   2.09380   2.10589   2.10793
 Alpha virt. eigenvalues --    2.12197   2.13493   2.14645   2.15480   2.15963
 Alpha virt. eigenvalues --    2.16287   2.17058   2.17765   2.18325   2.18505
 Alpha virt. eigenvalues --    2.18992   2.19937   2.21245   2.24489   2.24811
 Alpha virt. eigenvalues --    2.25186   2.26023   2.27160   2.29220   2.31271
 Alpha virt. eigenvalues --    2.31725   2.31990   2.32573   2.33390   2.33625
 Alpha virt. eigenvalues --    2.34739   2.35677   2.37479   2.42321   2.43969
 Alpha virt. eigenvalues --    2.45106   2.45919   2.46793   2.47850   2.50620
 Alpha virt. eigenvalues --    2.52584   2.53531   2.55037   2.55550   2.57661
 Alpha virt. eigenvalues --    2.58713   2.58725   2.60204   2.63385   2.65172
 Alpha virt. eigenvalues --    2.67878   2.68724   2.71431   2.71611   2.73052
 Alpha virt. eigenvalues --    2.76202   2.76907   2.77774   2.80878   2.82152
 Alpha virt. eigenvalues --    2.88613   2.90652   2.93510   2.94364   2.96519
 Alpha virt. eigenvalues --    3.00251   3.01592   3.02482   3.04557   3.05483
 Alpha virt. eigenvalues --    3.07131   3.07877   3.12012   3.13855   3.16935
 Alpha virt. eigenvalues --    3.20629   3.22113   3.23960   3.29693   3.32448
 Alpha virt. eigenvalues --    3.59846   3.74607   3.78110   3.90880   3.94372
          Condensed to atoms (all electrons):
 Mulliken charges:
               1
     1  C   -0.018937
     2  C   -0.019475
     3  C    0.025646
     4  C   -0.096901
     5  C    0.071225
     6  C   -0.075587
     7  C    0.038759
     8  C   -0.034719
     9  C   -0.090927
    10  C    0.036062
    11  C    0.031767
    12  C   -0.100892
    13  C    0.025084
    14  C   -0.010484
    15  C    0.006048
    16  C   -0.029312
    17  C   -0.032214
    18  C    0.080406
    19  C   -0.085148
    20  C    0.070662
    21  C   -0.093799
    22  C    0.026433
    23  H    0.031128
    24  H    0.031066
    25  H    0.017217
    26  H    0.009765
    27  H    0.013104
    28  H    0.017108
    29  H    0.019616
    30  H    0.018820
    31  H    0.029539
    32  H    0.027332
    33  H    0.024171
    34  H    0.010044
    35  H    0.010038
    36  H    0.017353
 Sum of Mulliken charges =  -0.00000
 Mulliken charges with hydrogens summed into heavy atoms:
               1
     1  C    0.012191
     2  C    0.011591
     3  C    0.042863
     4  C   -0.096901
     5  C    0.080990
     6  C   -0.075587
     7  C    0.051863
     8  C   -0.034719
     9  C   -0.090927
    10  C    0.053171
    11  C    0.051383
    12  C   -0.100892
    13  C    0.043904
    14  C    0.019055
    15  C    0.033381
    16  C   -0.005141
    17  C   -0.032214
    18  C    0.090450
    19  C   -0.085148
    20  C    0.080700
    21  C   -0.093799
    22  C    0.043786
 Electronic spatial extent (au):  <R**2>=           8538.4144
 Charge=             -0.0000 electrons
 Dipole moment (field-independent basis, Debye):
    X=              0.0236    Y=              0.0808    Z=             -0.0000  Tot=              0.0842
 Unable to Open any file for archive entry.
 1\1\GINC-NODE01\SP\RMP2-FC\CC-pVDZ\C22H14\XUHJ\11-Oct-2024\0\\#T MP2/c
 c-pVDZ symm=veryloose\\c1ccc2cc3cc4c(ccc5ccccc54)cc3cc2c1\\0,1\C,0,5.3
 02022,2.785037,0.\C,0,5.699548,1.411436,0.\C,0,4.756977,0.415522,0.\C,
 0,3.357465,0.723179,0.\C,0,2.374581,-0.271265,0.\C,0,1.002594,0.041756
 ,0.\C,0,0.,-0.961736,0.\C,0,-1.355238,-0.664416,0.\C,0,-1.751235,0.732
 666,0.\C,0,-3.154932,1.066954,0.\C,0,-4.111366,0.103843,0.\C,0,-3.7691
 55,-1.299953,0.\C,0,-4.781216,-2.284067,0.\C,0,-4.467704,-3.635506,0.\
 C,0,-3.119648,-4.03143,0.\C,0,-2.110113,-3.076696,0.\C,0,-2.400068,-1.
 695571,0.\C,0,-0.783203,1.728259,0.\C,0,0.601052,1.432645,0.\C,0,1.592
 287,2.431724,0.\C,0,2.954226,2.116342,0.\C,0,3.973356,3.12387,0.\H,0,6
 .068225,3.565943,0.\H,0,6.764353,1.160353,0.\H,0,5.058737,-0.636511,0.
 \H,0,2.679304,-1.322783,0.\H,0,0.337362,-2.000027,0.\H,0,-3.430807,2.1
 25809,0.\H,0,-5.171668,0.37439,0.\H,0,-5.826816,-1.960623,0.\H,0,-5.26
 2865,-4.386672,0.\H,0,-2.860196,-5.094153,0.\H,0,-1.072431,-3.415211,0
 .\H,0,-1.097934,2.776607,0.\H,0,1.286649,3.482858,0.\H,0,3.666705,4.17
 447,0.\\Version=ES64L-G16RevC.01\State=1-A'\HF=-841.354421\MP2=-844.19
 99693\RMSD=9.023e-09\PG=CS [SG(C22H14)]\\@
 The archive entry for this job was punched.


 FAULTILY FAULTLESS, ICILY REGULAR, SPLENDIDLY NULL...
           MAUDE BY TENNYSON
 Job cpu time:       0 days  0 hours 11 minutes 34.1 seconds.
 Elapsed time:       0 days  0 hours  1 minutes 26.8 seconds.
 File lengths (MBytes):  RWF=  17090 Int=      0 D2E=      0 Chk=     10 Scr=      1
 Normal termination of Gaussian 16 at Fri Oct 11 15:37:47 2024.
