 Entering Gaussian System, Link 0=g16
 Initial command:
 /opt/g16/l1.exe "/tmp/Gau-2540823.inp" -scrdir="/tmp/"
 Entering Link 1 = /opt/g16/l1.exe PID=   2540825.
  
 Copyright (c) 1988-2019, Gaussian, Inc.  All Rights Reserved.
  
 This is part of the Gaussian(R) 16 program.  It is based on
 the Gaussian(R) 09 system (copyright 2009, Gaussian, Inc.),
 the Gaussian(R) 03 system (copyright 2003, Gaussian, Inc.),
 the Gaussian(R) 98 system (copyright 1998, Gaussian, Inc.),
 the Gaussian(R) 94 system (copyright 1995, Gaussian, Inc.),
 the Gaussian 92(TM) system (copyright 1992, Gaussian, Inc.),
 the Gaussian 90(TM) system (copyright 1990, Gaussian, Inc.),
 the Gaussian 88(TM) system (copyright 1988, Gaussian, Inc.),
 the Gaussian 86(TM) system (copyright 1986, Carnegie Mellon
 University), and the Gaussian 82(TM) system (copyright 1983,
 Carnegie Mellon University). Gaussian is a federally registered
 trademark of Gaussian, Inc.
  
 This software contains proprietary and confidential information,
 including trade secrets, belonging to Gaussian, Inc.
  
 This software is provided under written license and may be
 used, copied, transmitted, or stored only in accord with that
 written license.
  
 The following legend is applicable only to US Government
 contracts under FAR:
  
                    RESTRICTED RIGHTS LEGEND
  
 Use, reproduction and disclosure by the US Government is
 subject to restrictions as set forth in subparagraphs (a)
 and (c) of the Commercial Computer Software - Restricted
 Rights clause in FAR 52.227-19.
  
 Gaussian, Inc.
 340 Quinnipiac St., Bldg. 40, Wallingford CT 06492
  
  
 ---------------------------------------------------------------
 Warning -- This program may not be used in any manner that
 competes with the business of Gaussian, Inc. or will provide
 assistance to any competitor of Gaussian, Inc.  The licensee
 of this program is prohibited from giving any competitor of
 Gaussian, Inc. access to this program.  By using this program,
 the user acknowledges that Gaussian, Inc. is engaged in the
 business of creating and licensing software in the field of
 computational chemistry and represents and warrants to the
 licensee that it is not a competitor of Gaussian, Inc. and that
 it will not use this program in any manner prohibited above.
 ---------------------------------------------------------------
  

 Cite this work as:
 Gaussian 16, Revision C.01,
 M. J. Frisch, G. W. Trucks, H. B. Schlegel, G. E. Scuseria, 
 M. A. Robb, J. R. Cheeseman, G. Scalmani, V. Barone, 
 G. A. Petersson, H. Nakatsuji, X. Li, M. Caricato, A. V. Marenich, 
 J. Bloino, B. G. Janesko, R. Gomperts, B. Mennucci, H. P. Hratchian, 
 J. V. Ortiz, A. F. Izmaylov, J. L. Sonnenberg, D. Williams-Young, 
 F. Ding, F. Lipparini, F. Egidi, J. Goings, B. Peng, A. Petrone, 
 T. Henderson, D. Ranasinghe, V. G. Zakrzewski, J. Gao, N. Rega, 
 G. Zheng, W. Liang, M. Hada, M. Ehara, K. Toyota, R. Fukuda, 
 J. Hasegawa, M. Ishida, T. Nakajima, Y. Honda, O. Kitao, H. Nakai, 
 T. Vreven, K. Throssell, J. A. Montgomery, Jr., J. E. Peralta, 
 F. Ogliaro, M. J. Bearpark, J. J. Heyd, E. N. Brothers, K. N. Kudin, 
 V. N. Staroverov, T. A. Keith, R. Kobayashi, J. Normand, 
 K. Raghavachari, A. P. Rendell, J. C. Burant, S. S. Iyengar, 
 J. Tomasi, M. Cossi, J. M. Millam, M. Klene, C. Adamo, R. Cammi, 
 J. W. Ochterski, R. L. Martin, K. Morokuma, O. Farkas, 
 J. B. Foresman, and D. J. Fox, Gaussian, Inc., Wallingford CT, 2019.
 
 ******************************************
 Gaussian 16:  ES64L-G16RevC.01  3-Jul-2019
                11-Oct-2024 
 ******************************************
 %nprocshared=8
 Will use up to    8 processors via shared memory.
 %mem=10400MB
 -----------------------------
 #T MP2/cc-pVDZ symm=veryloose
 -----------------------------
 ----------------------------------------
 c1ccc2cc3c(ccc4c3ccc3c5ccccc5ccc34)cc2c1
 ----------------------------------------
 Symbolic Z-matrix:
 Charge =  0 Multiplicity = 1
 C                     1.78563   6.68734   0. 
 C                     0.36324   6.60259   0. 
 C                    -0.26025   5.37713   0. 
 C                     0.49937   4.16769   0. 
 C                    -0.11382   2.90018   0. 
 C                     0.62146   1.71195   0. 
 C                     2.06025   1.80864   0. 
 C                     2.83237   0.59886   0. 
 C                     2.23788  -0.62571   0. 
 C                     0.80432  -0.77949   0. 
 C                     0.        0.38851   0. 
 C                    -1.41115   0.23126   0. 
 C                    -2.00174  -1.00867   0. 
 C                    -1.23254  -2.20269   0. 
 C                    -1.85854  -3.5159    0. 
 C                    -3.26428  -3.70254   0. 
 C                    -3.82531  -4.96835   0. 
 C                    -3.00335  -6.11478   0. 
 C                    -1.62911  -5.96696   0. 
 C                    -1.03415  -4.68113   0. 
 C                     0.38748  -4.52474   0. 
 C                     0.96811  -3.2894    0. 
 C                     0.18606  -2.08525   0. 
 C                     2.67843   3.06134   0. 
 C                     1.93683   4.25475   0. 
 C                     2.54987   5.5445    0. 
 H                     2.26666   7.66995   0. 
 H                    -0.2311    7.52107   0. 
 H                    -1.35271   5.30968   0. 
 H                    -1.20479   2.8749    0. 
 H                     3.9235    0.6801    0. 
 H                     2.87454  -1.51      0. 
 H                    -2.05583   1.11078   0. 
 H                    -3.09079  -1.06308   0. 
 H                    -3.93037  -2.83863   0. 
 H                    -4.9138   -5.07799   0. 
 H                    -3.45265  -7.11216   0. 
 H                    -0.97666  -6.84564   0. 
 H                     1.01116  -5.42384   0. 
 H                     2.05608  -3.22864   0. 
 H                     3.77183   3.11329   0. 
 H                     3.64259   5.60536   0. 
 
                    Distance matrix (angstroms):
                    1          2          3          4          5
     1  C    0.000000
     2  C    1.424911   0.000000
     3  C    2.429456   1.374955   0.000000
     4  C    2.828968   2.438703   1.428202   0.000000
     5  C    4.236798   3.733023   2.481276   1.408046   0.000000
     6  C    5.109768   4.897455   3.769742   2.458775   1.397328
     7  C    4.886417   5.085451   4.256620   2.828686   2.432698
     8  C    6.177797   6.491641   5.691762   4.263737   3.738464
     9  C    7.327020   7.467443   6.501906   5.098938   4.238209
    10  C    7.531036   7.395254   6.247987   4.956577   3.792490
    11  C    6.547031   6.224687   4.995400   3.812029   2.514243
    12  C    7.204183   6.613797   5.272999   4.375564   2.967520
    13  C    8.577449   7.970222   6.619004   5.748936   4.340890
    14  C    9.388386   8.948712   7.641920   6.601607   5.224055
    15  C   10.834484  10.359550   9.035517   8.037250   6.649072
    16  C   11.552102  10.924956   9.563713   8.723853   7.315824
    17  C   12.935909  12.305721  10.942518  10.107928   8.699941
    18  C   13.668519  13.155435  11.814759  10.862700   9.466722
    19  C   13.106928  12.726472  11.426377  10.355750   8.995678
    20  C   11.712946  11.369920  10.087986   8.980719   7.636964
    21  C   11.298916  11.127362   9.923035   8.693155   7.441824
    22  C   10.010171   9.910466   8.753145   7.471807   6.283423
    23  C    8.917220   8.689647   7.475712   6.260784   4.994437
    24  C    3.734298   4.230915   3.741492   2.443838   2.796899
    25  C    2.437281   2.826407   2.467169   1.440100   2.457651
    26  C    1.374823   2.429181   2.815101   2.469849   3.753356
    27  H    1.094043   2.182261   3.412083   3.922900   5.330800
    28  H    2.182272   1.094003   2.144141   3.432017   4.622382
    29  H    3.427402   2.148510   1.094537   2.175850   2.709343
    30  H    4.845331   4.044056   2.674564   2.139032   1.091260
    31  H    6.376318   6.910242   6.290142   4.887535   4.607463
    32  H    8.269341   8.492394   7.566995   6.154477   5.327282
    33  H    6.771615   6.000993   4.628806   3.984189   2.640710
    34  H    9.156882   8.407910   7.034794   6.344312   4.956796
    35  H   11.109303  10.371680   8.998248   8.289217   6.892022
    36  H   13.539027  12.817302  11.443998  10.713780   9.310801
    37  H   14.760270  14.235709  12.890839  11.952133  10.554367
    38  H   13.812014  13.514821  12.243750  11.111806   9.783943
    39  H   12.135912  12.043874  10.875543   9.605177   8.399694
    40  H    9.919659   9.975911   8.912048   7.558375   6.501603
    41  H    4.088864   4.877883   4.624138   3.438134   3.891490
    42  H    2.149180   3.427624   3.909504   3.456399   4.629101
                    6          7          8          9         10
     6  C    0.000000
     7  C    1.442029   0.000000
     8  C    2.475296   1.435180   0.000000
     9  C    2.842091   2.440827   1.361253   0.000000
    10  C    2.498147   2.876768   2.452114   1.441783   0.000000
    11  C    1.462088   2.502274   2.840173   2.456983   1.418160
    12  C    2.514744   3.812964   4.259412   3.748307   2.435145
    13  C    3.779279   4.943375   5.094388   4.256878   2.815402
    14  C    4.331478   5.189719   4.936820   3.811910   2.484810
    15  C    5.786266   6.611178   6.239870   5.013368   3.818216
    16  C    6.664509   7.663137   7.461314   6.304014   5.009760
    17  C    8.024978   8.975938   8.678634   7.457937   6.243401
    18  C    8.625367   9.403222   8.895429   7.589488   6.554664
    19  C    8.001919   8.606468   7.938189   6.594126   5.729866
    20  C    6.603977   7.189742   6.544334   5.210812   4.313087
    21  C    6.241081   6.550566   5.677046   4.315833   3.768374
    22  C    5.013346   5.213709   4.312082   2.950853   2.515240
    23  C    3.822079   4.321451   3.769273   2.517976   1.444728
    24  C    2.460073   1.396922   2.467278   3.713275   4.273670
    25  C    2.862871   2.449219   3.763973   4.889739   5.160058
    26  C    4.290360   3.767807   4.953699   6.178097   6.560476
    27  H    6.180977   5.864946   7.093685   8.295718   8.575057
    28  H    5.871351   6.154847   7.569799   8.512696   8.364898
    29  H    4.103779   4.889328   6.301325   6.936946   6.459940
    30  H    2.165097   3.434728   4.634546   4.909813   4.170268
    31  H    3.459504   2.178376   1.094145   2.132239   3.443786
    32  H    3.931576   3.417080   2.109282   1.089628   2.195318
    33  H    2.743958   4.174818   4.914936   4.631562   3.428354
    34  H    4.634832   5.897459   6.151909   5.346593   3.905426
    35  H    6.436377   7.581860   7.586241   6.553190   5.163075
    36  H    8.760278   9.801176   9.603640   8.424330   7.153602
    37  H    9.719222  10.486786   9.947932   8.628794   7.630494
    38  H    8.705539   9.171665   8.362381   7.001485   6.322188
    39  H    7.146423   7.308170   6.292039   4.952459   4.648949
    40  H    5.144660   5.037279   3.905429   2.609263   2.750490
    41  H    3.447980   2.152121   2.684197   4.041428   4.894882
    42  H    4.928062   4.113252   5.071629   6.387443   6.987278
                   11         12         13         14         15
    11  C    0.000000
    12  C    1.419882   0.000000
    13  C    2.441121   1.373400   0.000000
    14  C    2.869402   2.440491   1.420329   0.000000
    15  C    4.324193   3.773779   2.511319   1.454792   0.000000
    16  C    5.233759   4.348436   2.975054   2.525375   1.418070
    17  C    6.582480   5.732731   4.359418   3.790962   2.444954
    18  C    7.163304   6.542731   5.203419   4.294210   2.839848
    19  C    6.560947   6.202051   4.972270   3.785105   2.461770
    20  C    5.174044   4.926835   3.797785   2.486371   1.427365
    21  C    4.928511   5.084744   4.251012   2.831325   2.462185
    22  C    3.803190   4.249221   3.744554   2.454341   2.835709
    23  C    2.480748   2.813767   2.438335   1.423454   2.495431
    24  C    3.783909   4.973325   6.202331   6.557866   7.990255
    25  C    4.324246   5.234256   6.573883   7.193288   8.648001
    26  C    5.752046   6.627228   7.978795   8.621224  10.075961
    27  H    7.626081   8.298216   9.671490  10.474416  11.922276
    28  H    7.136302   7.384704   8.711582   9.775190  11.156316
    29  H    5.103694   5.078754   6.351597   7.513326   8.840067
    30  H    2.762904   2.651682   3.964500   5.077663   6.424156
    31  H    3.934318   5.353493   6.161196   5.907212   7.144115
    32  H    3.444895   4.625912   4.901976   4.165080   5.140591
    33  H    2.179016   1.090490   2.120140   3.414214   4.630887
    34  H    3.414695   2.120506   1.090416   2.179862   2.744953
    35  H    5.085495   3.971236   2.658642   2.771770   2.179719
    36  H    7.350383   6.360563   5.003948   4.671089   3.431433
    37  H    8.257171   7.621913   6.273573   5.388117   3.933730
    38  H    7.299787   7.090230   5.926301   4.650004   3.444544
    39  H    5.899653   6.152053   5.345212   3.925562   3.446074
    40  H    4.160678   4.898221   4.625381   3.444940   3.925150
    41  H    4.653074   5.930373   7.093985   7.300911   8.697544
    42  H    6.362694   7.377066   8.695040   9.205018  10.651750
                   16         17         18         19         20
    16  C    0.000000
    17  C    1.384573   0.000000
    18  C    2.426307   1.410642   0.000000
    19  C    2.793089   2.412575   1.382168   0.000000
    20  C    2.435383   2.805903   2.435797   1.416805   0.000000
    21  C    3.743168   4.236081   3.745120   2.479235   1.430202
    22  C    4.252499   5.078953   4.873936   3.730264   2.438431
    23  C    3.810572   4.939982   5.139014   4.285151   2.868364
    24  C    9.003654  10.333179  10.792761  10.003248   8.586558
    25  C    9.506315  10.875108  11.486189  10.825861   9.416828
    26  C   10.923007  12.294838  12.914218  12.246532  10.835528
    27  H   12.646141  14.029930  14.757772  14.182467  12.784544
    28  H   11.626249  12.996312  13.914805  13.560288  12.228597
    29  H    9.212721  10.571270  11.543087  11.280025   9.995885
    30  H    6.892333   8.269450   9.167834   8.852036   7.557957
    31  H    8.418527   9.589006   9.703171   8.661107   7.302122
    32  H    6.518608   7.539774   7.466830   6.336191   5.033278
    33  H    4.962701   6.331424   7.287419   7.090590   5.881329
    34  H    2.645153   3.973745   5.052451   5.117080   4.161734
    35  H    1.090884   2.132315   3.404779   3.883587   3.432623
    36  H    2.147743   1.093997   2.173649   3.402861   3.899898
    37  H    3.414817   2.175955   1.093909   2.153317   3.429146
    38  H    3.887450   3.411603   2.154447   1.094431   2.165278
    39  H    4.608931   4.857877   4.073539   2.695556   2.175988
    40  H    5.341423   6.133305   5.824748   4.591193   3.414567
    41  H    9.796036  11.091867  11.448157  10.565086   9.156985
    42  H   11.590587  12.944993  13.473308  12.716494  11.299717
                   21         22         23         24         25
    21  C    0.000000
    22  C    1.364995   0.000000
    23  C    2.447796   1.435817   0.000000
    24  C    7.924458   6.577005   5.718323   0.000000
    25  C    8.915155   7.606088   6.577292   1.405064   0.000000
    26  C   10.298815   8.974392   7.987530   2.486492   1.428030
    27  H   12.338636  11.036014   9.974610   4.626979   3.431094
    28  H   12.061687  10.876780   9.615374   5.324908   3.920308
    29  H    9.987197   8.906756   7.553328   4.615750   3.454558
    30  H    7.569018   6.536057   5.151460   3.887692   3.431293
    31  H    6.292359   4.948859   4.649253   2.687097   4.089619
    32  H    3.908216   2.607821   2.749329   4.575536   5.840513
    33  H    6.142382   5.339078   3.903930   5.120342   5.081921
    34  H    4.907285   4.629378   3.432579   7.091882   7.318224
    35  H    4.635383   4.919173   4.184804   8.859223   9.205439
    36  H    5.330069   6.147838   5.913131  11.130617  11.577188
    37  H    4.630473   5.844363   6.205646  11.878135  12.579870
    38  H    2.692109   4.053271   4.900335  10.559730  11.476374
    39  H    1.094240   2.134877   3.439039   8.647425   9.722754
    40  H    2.112851   1.089671   2.191876   6.320683   7.484335
    41  H    8.354243   6.989653   6.315261   1.094632   2.161050
    42  H   10.640237   9.288136   8.431663   2.720596   2.175713
                   26         27         28         29         30
    26  C    0.000000
    27  H    2.144240   0.000000
    28  H    3.411838   2.502191   0.000000
    29  H    3.909636   4.320961   2.479569   0.000000
    30  H    4.606974   5.919751   4.747101   2.439267   0.000000
    31  H    5.054631   7.183541   8.003728   7.019360   5.578216
    32  H    7.061965   9.200056   9.550142   8.023565   5.989009
    33  H    6.392993   7.855359   6.664945   4.257363   1.958673
    34  H    8.687765  10.245401   9.047961   6.605533   4.366320
    35  H   10.595771  12.199732  11.000364   8.546302   6.330342
    36  H   12.982439  14.631101  13.441135  10.981125   8.775266
    37  H   14.007899  15.849963  14.983652  12.598088  10.236907
    38  H   12.882238  14.873523  14.386048  12.161139   9.723222
    39  H   11.075744  13.153847  13.004383  10.990738   8.589502
    40  H    8.787021  10.900624  10.990334   9.193622   6.920003
    41  H    2.721024   4.798827   5.954159   5.575394   4.982323
    42  H    1.094409   2.481077   4.321507   5.004037   5.563489
                   31         32         33         34         35
    31  H    0.000000
    32  H    2.428339   0.000000
    33  H    5.994820   5.583636   0.000000
    34  H    7.227653   5.982048   2.407661   0.000000
    35  H    8.606083   6.933398   4.371696   1.964039   0.000000
    36  H   10.547674   8.566725   6.816809   4.409404   2.445789
    37  H   10.729714   8.450885   8.340733   6.059888   4.300149
    38  H    8.980439   6.580336   8.029276   6.156911   4.978009
    39  H    6.763114   4.334780   7.218567   5.986839   5.576923
    40  H    4.331907   1.903571   5.978157   5.583901   5.999144
    41  H    2.437916   4.709556   6.162115   8.033536   9.733921
    42  H    4.933265   7.156687   7.257628   9.476629  11.342422
                   36         37         38         39         40
    36  H    0.000000
    37  H    2.504557   0.000000
    38  H    4.315748   2.490291   0.000000
    39  H    5.935050   4.772424   2.443965   0.000000
    40  H    7.211061   6.740020   4.720198   2.431209   0.000000
    41  H   11.938897  12.520098  11.033063   8.972393   6.569916
    42  H   13.687428  14.562882  13.280242  11.338763   8.975322
                   41         42
    41  H    0.000000
    42  H    2.495416   0.000000
 Framework group  CS[SG(C26H16)]
 Deg. of freedom    81
                         Standard orientation:                         
 ---------------------------------------------------------------------
 Center     Atomic      Atomic             Coordinates (Angstroms)
 Number     Number       Type             X           Y           Z
 ---------------------------------------------------------------------
      1          6           0        1.785627    6.687336    0.000000
      2          6           0        0.363238    6.602594    0.000000
      3          6           0       -0.260251    5.377130    0.000000
      4          6           0        0.499369    4.167693    0.000000
      5          6           0       -0.113821    2.900179    0.000000
      6          6           0        0.621462    1.711951    0.000000
      7          6           0        2.060246    1.808642    0.000000
      8          6           0        2.832373    0.598864    0.000000
      9          6           0        2.237880   -0.625713    0.000000
     10          6           0        0.804322   -0.779494    0.000000
     11          6           0       -0.000000    0.388514    0.000000
     12          6           0       -1.411147    0.231262   -0.000000
     13          6           0       -2.001737   -1.008670   -0.000000
     14          6           0       -1.232540   -2.202685   -0.000000
     15          6           0       -1.858542   -3.515903   -0.000000
     16          6           0       -3.264276   -3.702542   -0.000000
     17          6           0       -3.825313   -4.968353   -0.000000
     18          6           0       -3.003351   -6.114778   -0.000000
     19          6           0       -1.629110   -5.966958   -0.000000
     20          6           0       -1.034150   -4.681128   -0.000000
     21          6           0        0.387476   -4.524742   -0.000000
     22          6           0        0.968106   -3.289396   -0.000000
     23          6           0        0.186061   -2.085247   -0.000000
     24          6           0        2.678431    3.061335    0.000000
     25          6           0        1.936835    4.254750    0.000000
     26          6           0        2.549870    5.544501    0.000000
     27          1           0        2.266657    7.669955    0.000000
     28          1           0       -0.231101    7.521073    0.000000
     29          1           0       -1.352708    5.309680    0.000000
     30          1           0       -1.204788    2.874902    0.000000
     31          1           0        3.923498    0.680095    0.000000
     32          1           0        2.874536   -1.509997    0.000000
     33          1           0       -2.055831    1.110780   -0.000000
     34          1           0       -3.090794   -1.063084   -0.000000
     35          1           0       -3.930370   -2.838628   -0.000000
     36          1           0       -4.913802   -5.077991   -0.000000
     37          1           0       -3.452648   -7.112158   -0.000000
     38          1           0       -0.976660   -6.845643   -0.000000
     39          1           0        1.011163   -5.423839   -0.000000
     40          1           0        2.056082   -3.228635   -0.000000
     41          1           0        3.771829    3.113289    0.000000
     42          1           0        3.642586    5.605356    0.000000
 ---------------------------------------------------------------------
 Rotational constants (GHZ):           0.7399527           0.0894581           0.0798094
   444 basis functions,   970 primitive gaussians,   470 cartesian basis functions
    86 alpha electrons       86 beta electrons
       nuclear repulsion energy      1947.7304069114 Hartrees.
 NAtoms=   42 NActive=   42 NUniq=   42 SFac= 1.00D+00 NAtFMM=   60 NAOKFM=F Big=F
 ExpMin= 1.22D-01 ExpMax= 6.67D+03 ExpMxC= 2.28D+02 IAcc=3 IRadAn=         5 AccDes= 0.00D+00
 Harris functional with IExCor=  205 and IRadAn=       5 diagonalized for initial guess.
 HarFok:  IExCor=  205 AccDes= 0.00D+00 IRadAn=         5 IDoV= 1 UseB2=F ITyADJ=14
 ICtDFT=  3500011 ScaDFX=  1.000000  1.000000  1.000000  1.000000
 FoFCou: FMM=F IPFlag=           0 FMFlag=      100000 FMFlg1=           0
         NFxFlg=           0 DoJE=T BraDBF=F KetDBF=T FulRan=T
         wScrn=  0.000000 ICntrl=       500 IOpCl=  0 I1Cent=   200000004 NGrid=           0
         NMat0=    1 NMatS0=      1 NMatT0=    0 NMatD0=    1 NMtDS0=    0 NMtDT0=    0
 Petite list used in FoFCou.
 Initial guess orbital symmetries:
       Occupied  (A') (A') (A') (A') (A') (A') (A') (A') (A') (A')
                 (A') (A') (A') (A') (A') (A') (A') (A') (A') (A')
                 (A') (A') (A') (A') (A') (A') (A') (A') (A') (A')
                 (A') (A') (A') (A') (A') (A') (A') (A') (A') (A')
                 (A') (A') (A') (A') (A') (A') (A') (A') (A') (A')
                 (A') (A') (A') (A') (A') (A') (A') (A') (A') (A')
                 (A') (A') (A') (A') (A") (A') (A') (A") (A') (A')
                 (A") (A') (A') (A') (A") (A') (A') (A") (A") (A")
                 (A") (A") (A") (A") (A") (A")
       Virtual   (A") (A") (A") (A") (A") (A") (A") (A") (A") (A")
                 (A') (A') (A') (A') (A") (A') (A') (A') (A') (A")
                 (A') (A') (A') (A') (A') (A") (A') (A') (A') (A')
                 (A') (A') (A') (A') (A') (A') (A') (A') (A') (A')
                 (A') (A') (A') (A') (A') (A') (A') (A') (A') (A')
                 (A') (A') (A') (A') (A') (A") (A") (A') (A') (A')
                 (A') (A") (A') (A") (A') (A') (A") (A') (A') (A")
                 (A') (A') (A') (A') (A') (A") (A') (A') (A') (A')
                 (A') (A") (A') (A') (A') (A") (A') (A') (A") (A')
                 (A") (A") (A') (A") (A") (A') (A") (A") (A") (A')
                 (A') (A') (A') (A") (A') (A') (A") (A') (A') (A')
                 (A") (A') (A') (A") (A") (A') (A') (A') (A') (A")
                 (A') (A") (A") (A") (A") (A') (A") (A') (A") (A')
                 (A') (A") (A') (A') (A") (A') (A') (A') (A') (A")
                 (A') (A') (A') (A") (A") (A') (A") (A') (A') (A')
                 (A") (A") (A') (A") (A") (A') (A") (A") (A') (A')
                 (A") (A") (A') (A') (A") (A') (A") (A') (A") (A')
                 (A') (A") (A') (A') (A') (A') (A') (A') (A') (A')
                 (A') (A') (A') (A') (A") (A') (A') (A") (A') (A")
                 (A') (A') (A") (A') (A") (A') (A') (A") (A') (A')
                 (A") (A') (A') (A') (A") (A') (A') (A") (A') (A")
                 (A") (A') (A") (A') (A') (A') (A") (A') (A') (A')
                 (A') (A') (A") (A') (A') (A') (A') (A") (A') (A")
                 (A') (A") (A') (A') (A") (A') (A') (A") (A") (A")
                 (A') (A') (A") (A") (A') (A") (A') (A") (A") (A')
                 (A') (A') (A") (A') (A') (A') (A") (A') (A') (A')
                 (A') (A') (A") (A") (A') (A") (A") (A') (A') (A')
                 (A') (A') (A') (A") (A') (A") (A') (A') (A') (A')
                 (A") (A') (A") (A') (A') (A") (A') (A') (A') (A')
                 (A") (A') (A') (A') (A") (A') (A") (A') (A") (A')
                 (A') (A') (A') (A") (A') (A") (A') (A') (A') (A')
                 (A') (A') (A") (A") (A') (A') (A') (A') (A") (A")
                 (A') (A') (A') (A') (A') (A') (A') (A') (A') (A')
                 (A') (A') (A') (A') (A') (A') (A') (A') (A') (A')
                 (A') (A') (A') (A') (A') (A') (A') (A') (A') (A')
                 (A') (A') (A') (A') (A') (A') (A') (A')
 The electronic state of the initial guess is 1-A'.
 Integral accuracy reduced to 1.0D-05 until final iterations.
 Initial convergence to 1.0D-05 achieved.  Increase integral accuracy.
 SCF Done:  E(RHF) =  -994.025151166     A.U. after   17 cycles
            NFock= 17  Conv=0.25D-08     -V/T= 2.0012
 ExpMin= 1.22D-01 ExpMax= 6.67D+03 ExpMxC= 2.28D+02 IAcc=3 IRadAn=         5 AccDes= 0.00D+00
 HarFok:  IExCor=  205 AccDes= 0.00D+00 IRadAn=         5 IDoV=-2 UseB2=F ITyADJ=14
 ICtDFT= 12500011 ScaDFX=  1.000000  1.000000  1.000000  1.000000
 GSVD:  LWork=        -884 too small for GESVD, short by        3770 words or        3770 for optimal perf.
 NROrb=    418 NOA=    60 NOB=    60 NVA=   358 NVB=   358

 **** Warning!!: The largest alpha MO coefficient is  0.14173146D+02

 Estimated scratch disk usage=  4925201168 words.
 Actual    scratch disk usage=  3913930512 words.
 ANorm=    0.1521511716D+01
 E2 =    -0.3361249294D+01 EUMP2 =    -0.99738640046035D+03

 **********************************************************************

            Population analysis using the SCF Density.

 **********************************************************************

 Orbital symmetries:
       Occupied  (A') (A') (A') (A') (A') (A') (A') (A') (A') (A')
                 (A') (A') (A') (A') (A') (A') (A') (A') (A') (A')
                 (A') (A') (A') (A') (A') (A') (A') (A') (A') (A')
                 (A') (A') (A') (A') (A') (A') (A') (A') (A') (A')
                 (A') (A') (A') (A') (A') (A') (A') (A') (A') (A')
                 (A') (A') (A') (A') (A') (A') (A') (A') (A') (A')
                 (A') (A') (A') (A') (A") (A') (A') (A') (A") (A')
                 (A") (A') (A') (A') (A') (A") (A') (A") (A") (A")
                 (A") (A") (A") (A") (A") (A")
       Virtual   (A") (A") (A") (A") (A") (A") (A') (A') (A') (A")
                 (A') (A') (A') (A') (A") (A') (A') (A') (A") (A')
                 (A') (A') (A") (A') (A') (A') (A") (A') (A') (A')
                 (A") (A') (A') (A') (A') (A') (A') (A") (A') (A')
                 (A') (A') (A') (A') (A') (A') (A') (A') (A') (A')
                 (A') (A') (A') (A') (A") (A') (A') (A") (A') (A')
                 (A") (A') (A") (A') (A') (A") (A') (A") (A') (A')
                 (A') (A") (A') (A') (A') (A") (A') (A') (A') (A")
                 (A') (A') (A') (A') (A') (A') (A") (A") (A') (A')
                 (A") (A') (A") (A") (A') (A") (A') (A") (A") (A')
                 (A') (A") (A') (A") (A') (A') (A") (A') (A') (A")
                 (A') (A') (A') (A") (A') (A') (A') (A") (A') (A")
                 (A') (A") (A') (A") (A") (A") (A') (A") (A') (A')
                 (A") (A') (A') (A') (A') (A") (A') (A') (A') (A")
                 (A') (A') (A') (A') (A") (A') (A") (A') (A") (A')
                 (A') (A') (A") (A") (A") (A") (A') (A") (A') (A")
                 (A') (A') (A") (A") (A') (A') (A') (A") (A") (A')
                 (A") (A') (A') (A') (A") (A') (A') (A') (A') (A')
                 (A') (A') (A') (A') (A') (A') (A") (A") (A') (A')
                 (A') (A") (A') (A") (A') (A") (A') (A") (A') (A')
                 (A") (A') (A') (A") (A') (A") (A') (A") (A") (A')
                 (A") (A') (A') (A") (A') (A') (A') (A') (A') (A")
                 (A') (A') (A') (A') (A") (A') (A') (A") (A") (A")
                 (A") (A') (A") (A') (A') (A') (A") (A') (A') (A")
                 (A') (A') (A") (A') (A') (A") (A') (A') (A') (A")
                 (A") (A") (A') (A') (A') (A') (A') (A") (A') (A')
                 (A') (A") (A") (A') (A') (A") (A') (A") (A') (A')
                 (A') (A') (A') (A") (A') (A') (A') (A") (A') (A')
                 (A") (A') (A') (A') (A") (A") (A') (A') (A') (A")
                 (A') (A') (A') (A') (A') (A") (A") (A") (A') (A')
                 (A') (A') (A') (A") (A") (A') (A') (A') (A') (A')
                 (A') (A") (A") (A') (A') (A') (A") (A") (A') (A')
                 (A') (A') (A') (A') (A') (A') (A') (A') (A') (A')
                 (A') (A') (A') (A') (A') (A') (A') (A') (A') (A')
                 (A') (A') (A') (A') (A') (A') (A') (A') (A') (A')
                 (A') (A') (A') (A') (A') (A') (A') (A')
 The electronic state is 1-A'.
 Alpha  occ. eigenvalues --  -11.25730 -11.25673 -11.25643 -11.25546 -11.25533
 Alpha  occ. eigenvalues --  -11.25458 -11.25231 -11.25215 -11.25115 -11.25065
 Alpha  occ. eigenvalues --  -11.24696 -11.24685 -11.24676 -11.24654 -11.24623
 Alpha  occ. eigenvalues --  -11.24618 -11.24615 -11.24568 -11.24565 -11.24556
 Alpha  occ. eigenvalues --  -11.24527 -11.24501 -11.24486 -11.24475 -11.24432
 Alpha  occ. eigenvalues --  -11.24420  -1.19739  -1.18160  -1.15736  -1.12562
 Alpha  occ. eigenvalues --   -1.09653  -1.08379  -1.06447  -1.04114  -1.03199
 Alpha  occ. eigenvalues --   -1.00928  -0.99480  -0.97565  -0.96194  -0.88480
 Alpha  occ. eigenvalues --   -0.86203  -0.85848  -0.84601  -0.82316  -0.81185
 Alpha  occ. eigenvalues --   -0.80865  -0.75334  -0.73713  -0.71396  -0.70836
 Alpha  occ. eigenvalues --   -0.69289  -0.68050  -0.66955  -0.64643  -0.63874
 Alpha  occ. eigenvalues --   -0.62692  -0.62404  -0.60783  -0.60065  -0.59261
 Alpha  occ. eigenvalues --   -0.58575  -0.58440  -0.57160  -0.56588  -0.55846
 Alpha  occ. eigenvalues --   -0.55756  -0.54915  -0.53962  -0.53787  -0.51924
 Alpha  occ. eigenvalues --   -0.50608  -0.50398  -0.49027  -0.48159  -0.47535
 Alpha  occ. eigenvalues --   -0.46479  -0.45758  -0.43433  -0.41235  -0.39913
 Alpha  occ. eigenvalues --   -0.36812  -0.34492  -0.32218  -0.29824  -0.27413
 Alpha  occ. eigenvalues --   -0.25479
 Alpha virt. eigenvalues --    0.05028   0.07259   0.09223   0.11433   0.13905
 Alpha virt. eigenvalues --    0.15864   0.17957   0.18444   0.18579   0.18668
 Alpha virt. eigenvalues --    0.19316   0.19901   0.21201   0.21822   0.22110
 Alpha virt. eigenvalues --    0.23054   0.23820   0.24803   0.25253   0.25434
 Alpha virt. eigenvalues --    0.26985   0.28346   0.29497   0.30850   0.33581
 Alpha virt. eigenvalues --    0.35678   0.35723   0.37709   0.39546   0.40072
 Alpha virt. eigenvalues --    0.40126   0.40892   0.41872   0.42688   0.44059
 Alpha virt. eigenvalues --    0.45004   0.45312   0.45394   0.46174   0.46706
 Alpha virt. eigenvalues --    0.47864   0.48340   0.49266   0.50860   0.53299
 Alpha virt. eigenvalues --    0.54298   0.55618   0.56573   0.58023   0.59701
 Alpha virt. eigenvalues --    0.63488   0.63822   0.64934   0.64967   0.65254
 Alpha virt. eigenvalues --    0.65648   0.66155   0.66444   0.66504   0.67434
 Alpha virt. eigenvalues --    0.67819   0.68053   0.68334   0.68764   0.69272
 Alpha virt. eigenvalues --    0.69725   0.70045   0.70335   0.70753   0.71474
 Alpha virt. eigenvalues --    0.71589   0.71955   0.72023   0.72554   0.72953
 Alpha virt. eigenvalues --    0.73044   0.73839   0.74021   0.74619   0.74751
 Alpha virt. eigenvalues --    0.75176   0.75509   0.75793   0.76036   0.76166
 Alpha virt. eigenvalues --    0.76674   0.76724   0.77069   0.77485   0.77965
 Alpha virt. eigenvalues --    0.78364   0.78948   0.78991   0.80551   0.81810
 Alpha virt. eigenvalues --    0.82390   0.82963   0.83448   0.84510   0.86381
 Alpha virt. eigenvalues --    0.87043   0.87250   0.88287   0.88507   0.89288
 Alpha virt. eigenvalues --    0.89377   0.90106   0.91023   0.91479   0.92507
 Alpha virt. eigenvalues --    0.92798   0.92957   0.93708   0.94004   0.94150
 Alpha virt. eigenvalues --    0.94691   0.97332   0.97553   0.98375   0.99730
 Alpha virt. eigenvalues --    0.99946   1.00412   1.01222   1.02421   1.04687
 Alpha virt. eigenvalues --    1.06456   1.08702   1.08739   1.09836   1.10493
 Alpha virt. eigenvalues --    1.11118   1.11204   1.11767   1.12443   1.13051
 Alpha virt. eigenvalues --    1.13372   1.13722   1.14222   1.14452   1.15118
 Alpha virt. eigenvalues --    1.15361   1.15830   1.16140   1.17037   1.18259
 Alpha virt. eigenvalues --    1.18643   1.18957   1.19569   1.19652   1.20022
 Alpha virt. eigenvalues --    1.20868   1.21524   1.21699   1.22327   1.22772
 Alpha virt. eigenvalues --    1.23314   1.23607   1.24468   1.24658   1.25653
 Alpha virt. eigenvalues --    1.26091   1.27381   1.27911   1.28641   1.28740
 Alpha virt. eigenvalues --    1.29199   1.30902   1.31129   1.31936   1.32191
 Alpha virt. eigenvalues --    1.33504   1.33534   1.34514   1.35221   1.35479
 Alpha virt. eigenvalues --    1.36665   1.37044   1.38862   1.41974   1.43110
 Alpha virt. eigenvalues --    1.50872   1.52394   1.54346   1.54867   1.57047
 Alpha virt. eigenvalues --    1.58607   1.58869   1.60240   1.60643   1.62121
 Alpha virt. eigenvalues --    1.62232   1.63083   1.63193   1.63592   1.64532
 Alpha virt. eigenvalues --    1.65809   1.66030   1.66938   1.68051   1.69057
 Alpha virt. eigenvalues --    1.69780   1.69902   1.71290   1.71666   1.72308
 Alpha virt. eigenvalues --    1.73803   1.73858   1.74293   1.74503   1.75440
 Alpha virt. eigenvalues --    1.76707   1.77061   1.78825   1.80142   1.80398
 Alpha virt. eigenvalues --    1.81516   1.82529   1.84223   1.85441   1.85625
 Alpha virt. eigenvalues --    1.86496   1.87093   1.87315   1.88848   1.89108
 Alpha virt. eigenvalues --    1.89771   1.90190   1.90435   1.90664   1.91167
 Alpha virt. eigenvalues --    1.91462   1.91503   1.92325   1.92415   1.92882
 Alpha virt. eigenvalues --    1.94292   1.95416   1.95523   1.96061   1.96105
 Alpha virt. eigenvalues --    1.96996   1.97114   1.98017   1.98922   2.00095
 Alpha virt. eigenvalues --    2.00678   2.00890   2.02114   2.02646   2.03009
 Alpha virt. eigenvalues --    2.03963   2.04649   2.04756   2.05008   2.05799
 Alpha virt. eigenvalues --    2.06359   2.07144   2.08157   2.09240   2.10039
 Alpha virt. eigenvalues --    2.10921   2.10939   2.11265   2.11959   2.12836
 Alpha virt. eigenvalues --    2.13048   2.13978   2.14308   2.14995   2.16566
 Alpha virt. eigenvalues --    2.17242   2.17737   2.18190   2.19439   2.19711
 Alpha virt. eigenvalues --    2.20546   2.21750   2.22299   2.22971   2.23813
 Alpha virt. eigenvalues --    2.24377   2.24408   2.25173   2.26411   2.26681
 Alpha virt. eigenvalues --    2.28208   2.28434   2.29660   2.32051   2.32631
 Alpha virt. eigenvalues --    2.33327   2.35022   2.35138   2.36447   2.37659
 Alpha virt. eigenvalues --    2.37717   2.38641   2.39819   2.41172   2.44016
 Alpha virt. eigenvalues --    2.45854   2.46703   2.48860   2.49676   2.50075
 Alpha virt. eigenvalues --    2.50387   2.52137   2.53349   2.55093   2.56553
 Alpha virt. eigenvalues --    2.56990   2.60948   2.61223   2.61403   2.63611
 Alpha virt. eigenvalues --    2.65662   2.69524   2.69842   2.71151   2.71334
 Alpha virt. eigenvalues --    2.71609   2.74168   2.74946   2.76387   2.78060
 Alpha virt. eigenvalues --    2.78653   2.80174   2.82474   2.83003   2.86462
 Alpha virt. eigenvalues --    2.92931   2.93847   2.95213   2.96212   2.99762
 Alpha virt. eigenvalues --    3.00420   3.03233   3.03901   3.04542   3.06473
 Alpha virt. eigenvalues --    3.06586   3.08706   3.09996   3.11131   3.13384
 Alpha virt. eigenvalues --    3.15967   3.20191   3.21927   3.27318   3.27486
 Alpha virt. eigenvalues --    3.30250   3.30895   3.62164   3.68422   3.73489
 Alpha virt. eigenvalues --    3.84217   3.91139   3.97582
          Condensed to atoms (all electrons):
 Mulliken charges:
               1
     1  C   -0.015616
     2  C   -0.019011
     3  C    0.022207
     4  C   -0.082932
     5  C    0.035217
     6  C   -0.029153
     7  C   -0.091267
     8  C    0.061798
     9  C   -0.016255
    10  C   -0.033757
    11  C   -0.029033
    12  C    0.004117
    13  C    0.008284
    14  C   -0.030658
    15  C   -0.034934
    16  C   -0.029760
    17  C    0.005975
    18  C   -0.012161
    19  C    0.028599
    20  C   -0.101078
    21  C    0.058786
    22  C   -0.018051
    23  C   -0.033847
    24  C    0.079950
    25  C   -0.097384
    26  C    0.023831
    27  H    0.031168
    28  H    0.030397
    29  H    0.016981
    30  H    0.016055
    31  H    0.014993
    32  H    0.025233
    33  H    0.019854
    34  H    0.019910
    35  H    0.025225
    36  H    0.027674
    37  H    0.029729
    38  H    0.018668
    39  H    0.016751
    40  H    0.024979
    41  H    0.011500
    42  H    0.017017
 Sum of Mulliken charges =  -0.00000
 Mulliken charges with hydrogens summed into heavy atoms:
               1
     1  C    0.015551
     2  C    0.011386
     3  C    0.039188
     4  C   -0.082932
     5  C    0.051272
     6  C   -0.029153
     7  C   -0.091267
     8  C    0.076791
     9  C    0.008977
    10  C   -0.033757
    11  C   -0.029033
    12  C    0.023971
    13  C    0.028195
    14  C   -0.030658
    15  C   -0.034934
    16  C   -0.004535
    17  C    0.033650
    18  C    0.017569
    19  C    0.047267
    20  C   -0.101078
    21  C    0.075538
    22  C    0.006927
    23  C   -0.033847
    24  C    0.091450
    25  C   -0.097384
    26  C    0.040848
 Electronic spatial extent (au):  <R**2>=          12505.8601
 Charge=              0.0000 electrons
 Dipole moment (field-independent basis, Debye):
    X=             -0.0824    Y=              0.0240    Z=             -0.0000  Tot=              0.0858
 Unable to Open any file for archive entry.
 1\1\GINC-NODE01\SP\RMP2-FC\CC-pVDZ\C26H16\XUHJ\11-Oct-2024\0\\#T MP2/c
 c-pVDZ symm=veryloose\\c1ccc2cc3c(ccc4c3ccc3c5ccccc5ccc34)cc2c1\\0,1\C
 ,0,1.785626,6.687336,0.\C,0,0.363237,6.602594,0.\C,0,-0.260252,5.37713
 ,0.\C,0,0.499368,4.167693,0.\C,0,-0.113821,2.900179,0.\C,0,0.621462,1.
 711951,0.\C,0,2.060246,1.808642,0.\C,0,2.832373,0.598864,0.\C,0,2.2378
 8,-0.625713,0.\C,0,0.804322,-0.779494,0.\C,0,0.,0.388514,0.\C,0,-1.411
 147,0.231262,0.\C,0,-2.001737,-1.00867,0.\C,0,-1.23254,-2.202685,0.\C,
 0,-1.858541,-3.515903,0.\C,0,-3.264275,-3.702542,0.\C,0,-3.825312,-4.9
 68354,0.\C,0,-3.00335,-6.114778,0.\C,0,-1.629109,-5.966958,0.\C,0,-1.0
 34149,-4.681128,0.\C,0,0.387477,-4.524742,0.\C,0,0.968107,-3.289396,0.
 \C,0,0.186061,-2.085247,0.\C,0,2.678431,3.061335,0.\C,0,1.936834,4.254
 75,0.\C,0,2.549869,5.544501,0.\H,0,2.266656,7.669955,0.\H,0,-0.231102,
 7.521073,0.\H,0,-1.352709,5.30968,0.\H,0,-1.204788,2.874902,0.\H,0,3.9
 23498,0.680096,0.\H,0,2.874536,-1.509997,0.\H,0,-2.055831,1.11078,0.\H
 ,0,-3.090794,-1.063084,0.\H,0,-3.93037,-2.838629,0.\H,0,-4.913801,-5.0
 77992,0.\H,0,-3.452647,-7.112159,0.\H,0,-0.976659,-6.845643,0.\H,0,1.0
 11164,-5.423839,0.\H,0,2.056083,-3.228635,0.\H,0,3.771829,3.11329,0.\H
 ,0,3.642585,5.605357,0.\\Version=ES64L-G16RevC.01\State=1-A'\HF=-994.0
 251512\MP2=-997.3864005\RMSD=2.475e-09\PG=CS [SG(C26H16)]\\@
 The archive entry for this job was punched.


 Everywhere is walking distance if you have the time.
                                    -- Steven Wright
 Job cpu time:       0 days  0 hours 22 minutes 49.3 seconds.
 Elapsed time:       0 days  0 hours  2 minutes 51.3 seconds.
 File lengths (MBytes):  RWF=  29975 Int=      0 D2E=      0 Chk=     14 Scr=      1
 Normal termination of Gaussian 16 at Fri Oct 11 15:40:41 2024.
