 Entering Gaussian System, Link 0=g16
 Initial command:
 /opt/g16/l1.exe "/tmp/Gau-2545000.inp" -scrdir="/tmp/"
 Entering Link 1 = /opt/g16/l1.exe PID=   2545002.
  
 Copyright (c) 1988-2019, Gaussian, Inc.  All Rights Reserved.
  
 This is part of the Gaussian(R) 16 program.  It is based on
 the Gaussian(R) 09 system (copyright 2009, Gaussian, Inc.),
 the Gaussian(R) 03 system (copyright 2003, Gaussian, Inc.),
 the Gaussian(R) 98 system (copyright 1998, Gaussian, Inc.),
 the Gaussian(R) 94 system (copyright 1995, Gaussian, Inc.),
 the Gaussian 92(TM) system (copyright 1992, Gaussian, Inc.),
 the Gaussian 90(TM) system (copyright 1990, Gaussian, Inc.),
 the Gaussian 88(TM) system (copyright 1988, Gaussian, Inc.),
 the Gaussian 86(TM) system (copyright 1986, Carnegie Mellon
 University), and the Gaussian 82(TM) system (copyright 1983,
 Carnegie Mellon University). Gaussian is a federally registered
 trademark of Gaussian, Inc.
  
 This software contains proprietary and confidential information,
 including trade secrets, belonging to Gaussian, Inc.
  
 This software is provided under written license and may be
 used, copied, transmitted, or stored only in accord with that
 written license.
  
 The following legend is applicable only to US Government
 contracts under FAR:
  
                    RESTRICTED RIGHTS LEGEND
  
 Use, reproduction and disclosure by the US Government is
 subject to restrictions as set forth in subparagraphs (a)
 and (c) of the Commercial Computer Software - Restricted
 Rights clause in FAR 52.227-19.
  
 Gaussian, Inc.
 340 Quinnipiac St., Bldg. 40, Wallingford CT 06492
  
  
 ---------------------------------------------------------------
 Warning -- This program may not be used in any manner that
 competes with the business of Gaussian, Inc. or will provide
 assistance to any competitor of Gaussian, Inc.  The licensee
 of this program is prohibited from giving any competitor of
 Gaussian, Inc. access to this program.  By using this program,
 the user acknowledges that Gaussian, Inc. is engaged in the
 business of creating and licensing software in the field of
 computational chemistry and represents and warrants to the
 licensee that it is not a competitor of Gaussian, Inc. and that
 it will not use this program in any manner prohibited above.
 ---------------------------------------------------------------
  

 Cite this work as:
 Gaussian 16, Revision C.01,
 M. J. Frisch, G. W. Trucks, H. B. Schlegel, G. E. Scuseria, 
 M. A. Robb, J. R. Cheeseman, G. Scalmani, V. Barone, 
 G. A. Petersson, H. Nakatsuji, X. Li, M. Caricato, A. V. Marenich, 
 J. Bloino, B. G. Janesko, R. Gomperts, B. Mennucci, H. P. Hratchian, 
 J. V. Ortiz, A. F. Izmaylov, J. L. Sonnenberg, D. Williams-Young, 
 F. Ding, F. Lipparini, F. Egidi, J. Goings, B. Peng, A. Petrone, 
 T. Henderson, D. Ranasinghe, V. G. Zakrzewski, J. Gao, N. Rega, 
 G. Zheng, W. Liang, M. Hada, M. Ehara, K. Toyota, R. Fukuda, 
 J. Hasegawa, M. Ishida, T. Nakajima, Y. Honda, O. Kitao, H. Nakai, 
 T. Vreven, K. Throssell, J. A. Montgomery, Jr., J. E. Peralta, 
 F. Ogliaro, M. J. Bearpark, J. J. Heyd, E. N. Brothers, K. N. Kudin, 
 V. N. Staroverov, T. A. Keith, R. Kobayashi, J. Normand, 
 K. Raghavachari, A. P. Rendell, J. C. Burant, S. S. Iyengar, 
 J. Tomasi, M. Cossi, J. M. Millam, M. Klene, C. Adamo, R. Cammi, 
 J. W. Ochterski, R. L. Martin, K. Morokuma, O. Farkas, 
 J. B. Foresman, and D. J. Fox, Gaussian, Inc., Wallingford CT, 2019.
 
 ******************************************
 Gaussian 16:  ES64L-G16RevC.01  3-Jul-2019
                11-Oct-2024 
 ******************************************
 %nprocshared=8
 Will use up to    8 processors via shared memory.
 %mem=8800MB
 -----------------------------
 #T MP2/cc-pVDZ symm=veryloose
 -----------------------------
 ----------------------------------
 c1ccc2c(c1)ccc1c3ccccc3c3ccccc3c21
 ----------------------------------
 Symbolic Z-matrix:
 Charge =  0 Multiplicity = 1
 C                     4.82988  -0.2502    0.38408 
 C                     4.13625   0.90656   0.80182 
 C                     2.76357   0.99535   0.65681 
 C                     2.00122  -0.06367   0.08752 
 C                     2.7035   -1.27304  -0.22472 
 C                     4.11611  -1.32596  -0.10404 
 C                     1.95712  -2.42907  -0.59251 
 C                     0.59055  -2.41918  -0.54137 
 C                    -0.14235  -1.22607  -0.24997 
 C                    -1.5946   -1.2585   -0.0774 
 C                    -2.31303  -2.47829  -0.0606 
 C                    -3.67063  -2.52092   0.21333 
 C                    -4.36345  -1.33127   0.49074 
 C                    -3.68641  -0.12257   0.46552 
 C                    -2.30633  -0.05073   0.16657 
 C                    -1.60669   1.22519   0.03616 
 C                    -2.30934   2.45178   0.00114 
 C                    -1.6699    3.65294  -0.26052 
 C                    -0.295     3.6554   -0.543 
 C                     0.42047   2.46964  -0.49007 
 C                    -0.19221   1.23867  -0.14301 
 C                     0.56119  -0.01439  -0.09088 
 H                     5.91777  -0.30578   0.4844 
 H                     4.68431   1.73457   1.26121 
 H                     2.25447   1.87852   1.0408 
 H                     4.62779  -2.25373  -0.37828 
 H                     2.49477  -3.3439   -0.85901 
 H                     0.05259  -3.34177  -0.75917 
 H                    -1.7929   -3.41934  -0.24001 
 H                    -4.19389  -3.48142   0.22745 
 H                    -5.43109  -1.3552    0.7276 
 H                    -4.24026   0.79008   0.68896 
 H                    -3.39052   2.45929   0.14361 
 H                    -2.24436   4.58334  -0.29051 
 H                     0.21042   4.5834   -0.82598 
 H                     1.47143   2.48185  -0.77466 
 
                    Distance matrix (angstroms):
                    1          2          3          4          5
     1  C    0.000000
     2  C    1.411995   0.000000
     3  C    2.428043   1.383166   0.000000
     4  C    2.850270   2.451508   1.423646   0.000000
     5  C    2.436865   2.803068   2.434391   1.432923   0.000000
     6  C    1.380216   2.409385   2.792255   2.470384   1.418734
     7  C    3.735500   4.221280   3.733336   2.461612   1.424351
     8  C    4.851069   5.043483   4.220979   2.816730   2.424560
     9  C    5.106605   4.894976   3.768465   2.461707   2.846352
    10  C    6.519481   6.188957   4.961106   3.792731   4.300656
    11  C    7.495554   7.334454   6.192958   4.946227   5.161899
    12  C    8.800232   8.546425   7.345734   6.182549   6.509895
    13  C    9.257289   8.794858   7.499011   6.502191   7.103316
    14  C    8.517634   7.897224   6.548936   5.700483   6.529239
    15  C    7.142315   6.544220   5.199861   4.308304   5.171618
    16  C    6.612661   5.802510   4.420096   3.831559   4.988685
    17  C    7.643024   6.676405   5.318416   4.991584   6.249312
    18  C    7.609013   6.510179   5.249755   5.235588   6.587345
    19  C    6.509813   5.385226   4.227335   4.416072   5.777705
    20  C    5.254008   4.233110   2.996503   3.041387   4.392071
    21  C    5.264598   4.442813   3.071743   2.561325   3.834124
    22  C    4.301505   3.798176   2.535572   1.451884   2.488297
    23  H    1.093918   2.178151   3.416373   3.944042   3.430737
    24  H    2.174827   1.094079   2.144988   3.436587   3.895803
    25  H    3.405213   2.131409   1.089326   2.178292   3.425709
    26  H    2.153180   3.409066   3.886291   3.451412   2.165235
    27  H    4.070504   4.849664   4.604239   3.449558   2.175861
    28  H    5.804079   6.096004   5.307068   3.906406   3.404795
    29  H    7.368458   7.413073   6.407431   5.075747   4.982419
    30  H    9.586121   9.432682   8.284446   7.076726   7.256405
    31  H   10.326009   9.831326   8.525403   7.570799   8.190555
    32  H    9.134693   8.378080   7.006915   6.328251   7.301174
    33  H    8.658760   7.713393   6.346602   5.953095   7.155629
    34  H    8.594361   7.444731   6.233017   6.305754   7.666995
    35  H    6.794654   5.619693   4.646653   5.063266   6.393341
    36  H    4.481735   3.473910   2.434839   2.739284   3.989937
                    6          7          8          9         10
     6  C    0.000000
     7  C    2.473191   0.000000
     8  C    3.716978   1.367562   0.000000
     9  C    4.262123   2.443830   1.430232   0.000000
    10  C    5.711170   3.774961   2.517412   1.462832   0.000000
    11  C    6.531735   4.303436   2.943711   2.513120   1.415738
    12  C    7.884285   5.685899   4.328698   3.786829   2.447068
    13  C    8.500390   6.506013   5.175995   4.286889   2.827470
    14  C    7.915285   6.187794   4.957887   3.780212   2.441462
    15  C    6.553409   4.940626   3.808243   2.497556   1.422951
    16  C    6.267249   5.142918   4.294516   2.869645   2.486310
    17  C    7.454444   6.509827   5.694734   4.276160   3.779310
    18  C    7.634899   7.089165   6.485299   5.112556   4.915419
    19  C    6.668174   6.488092   6.138794   4.892645   5.104129
    20  C    5.311622   5.135090   4.892046   3.746022   4.257906
    21  C    5.014023   4.274807   3.761815   2.467562   2.864753
    22  C    3.789172   2.833890   2.446796   1.410119   2.489056
    23  H    2.152449   4.621133   5.822196   6.173434   7.593357
    24  H    3.399062   5.311286   6.104246   5.860520   7.083436
    25  H    3.878792   4.616434   4.872591   4.129083   5.089854
    26  H    1.094441   2.684984   4.043923   4.881272   6.308667
    27  H    2.696441   1.094074   2.140571   3.436641   4.656478
    28  H    4.583104   2.118497   1.089954   2.184819   2.741908
    29  H    6.270332   3.894553   2.602301   2.744966   2.176008
    30  H    8.591383   6.294018   4.960875   4.661491   3.433746
    31  H    9.583387   7.581654   6.245194   5.379875   3.921220
    32  H    8.656519   7.100187   5.928730   4.662549   3.432708
    33  H    8.410637   7.282525   6.333844   4.928225   4.134738
    34  H    8.683897   8.180313   7.558765   6.178135   5.881718
    35  H    7.120117   7.230504   7.018663   5.848606   6.160049
    36  H    4.684380   4.938237   4.985024   4.077777   4.886401
                   11         12         13         14         15
    11  C    0.000000
    12  C    1.385618   0.000000
    13  C    2.413262   1.404355   0.000000
    14  C    2.777117   2.411628   1.385637   0.000000
    15  C    2.438177   2.822296   2.444708   1.413905   0.000000
    16  C    3.771476   4.280723   3.787064   2.515157   1.460984
    17  C    4.930459   5.160031   4.332502   2.956219   2.507974
    18  C    6.168101   6.507224   5.715061   4.341410   3.782138
    19  C    6.475130   7.079115   6.518265   5.176076   4.276019
    20  C    5.669074   6.491341   6.188272   4.949651   3.770788
    21  C    4.280233   5.134283   4.940183   3.799031   2.495571
    22  C    3.785871   4.927830   5.130738   4.285245   2.879283
    23  H    8.530121   9.844686  10.332239   9.605944   8.234195
    24  H    8.273943   9.434633   9.584096   8.611094   7.297573
    25  H    6.407570   7.426078   7.375783   6.295182   5.028638
    26  H    6.951722   8.323780   9.080121   8.624374   7.296044
    27  H    4.949919   6.311846   7.273765   7.094949   5.911633
    28  H    2.613380   3.934708   5.010564   5.083619   4.153607
    29  H    1.090094   2.130391   3.391424   3.866763   3.431688
    30  H    2.151015   1.093875   2.172841   3.405311   3.916152
    31  H    3.406587   2.173145   1.093856   2.152204   3.432270
    32  H    3.867595   3.393145   2.134152   1.090691   2.172537
    33  H    5.057896   4.988565   3.928793   2.618613   2.734255
    34  H    7.065700   7.263511   6.331152   4.979619   4.656965
    35  H    7.537972   8.161745   7.591927   6.244944   5.366035
    36  H    6.279729   7.241868   7.084275   5.909680   4.644500
                   16         17         18         19         20
    16  C    0.000000
    17  C    1.414026   0.000000
    18  C    2.446620   1.385683   0.000000
    19  C    2.821680   2.408805   1.403614   0.000000
    20  C    2.436169   2.773705   2.412985   1.385907   0.000000
    21  C    1.425843   2.444311   2.833029   2.451771   1.418138
    22  C    2.500480   3.785554   4.296022   3.795377   2.519834
    23  H    7.691704   8.690398   8.590634   7.439427   6.234812
    24  H    6.429376   7.142355   6.809674   5.633676   4.667723
    25  H    4.042859   4.715704   4.499179   3.487914   2.461004
    26  H    7.151468   8.391048   8.635017   7.692788   6.326481
    27  H    6.204828   7.576891   8.164456   7.541415   6.183533
    28  H    4.923701   6.302538   7.220902   7.009130   5.829249
    29  H    4.656458   5.898725   7.073373   7.237919   6.296154
    30  H    5.374234   6.229421   7.583384   8.168793   7.564535
    31  H    4.665030   4.976562   6.340690   7.286969   7.095967
    32  H    2.747937   2.638711   3.962853   5.029199   5.092482
    33  H    2.171769   1.090551   2.132758   3.388855   3.863321
    34  H    3.433728   2.152396   1.093873   2.173660   3.407175
    35  H    3.914426   3.402515   2.172810   1.093941   2.150567
    36  H    3.422201   3.859666   3.391716   2.133354   1.088888
                   21         22         23         24         25
    21  C    0.000000
    22  C    1.463040   0.000000
    23  H    6.333314   5.395262   0.000000
    24  H    5.098845   4.678371   2.507568   0.000000
    25  H    2.792326   2.780473   4.301222   2.444055   0.000000
    26  H    5.956903   4.651296   2.490542   4.312508   4.972121
    27  H    5.360264   3.926115   4.769894   5.922862   5.562436
    28  H    4.628165   3.431717   6.720422   7.162679   5.944708
    29  H    4.926318   4.142175   8.347065   8.412532   6.788889
    30  H    6.199182   5.893415  10.601716  10.348797   8.424479
    31  H    5.910320   6.194754  11.399867  10.590212   8.344029
    32  H    4.156932   4.930438  10.219020   8.992632   6.594696
    33  H    3.435291   4.667982   9.716274   8.183950   5.745271
    34  H    3.926817   5.389812   9.545905   7.650471   5.415522
    35  H    3.437412   4.669379   7.628562   5.699808   3.870316
    36  H    2.170762   2.743598   5.396852   3.876307   2.067135
                   26         27         28         29         30
    26  H    0.000000
    27  H    2.443227   0.000000
    28  H    4.718200   2.444222   0.000000
    29  H    6.527103   4.332776   1.918689   0.000000
    30  H    8.927272   6.777714   4.361819   2.446857   0.000000
    31  H   10.159301   8.324146   6.018936   4.293406   2.510306
    32  H    9.436431   8.052741   6.131704   4.956995   4.296616
    33  H    9.315487   8.325794   6.806041   6.103916   5.995371
    34  H    9.694316   9.253304   8.264554   8.015560   8.313202
    35  H    8.152300   8.249933   7.927016   8.270457   9.249270
    36  H    5.704864   5.915545   5.993982   6.765036   8.286173
                   31         32         33         34         35
    31  H    0.000000
    32  H    2.453935   0.000000
    33  H    4.365235   1.950823   0.000000
    34  H    6.816012   4.396791   2.452292   0.000000
    35  H    8.337096   6.040932   4.291704   2.512504   0.000000
    36  H    8.038936   6.134142   4.947960   4.296251   2.451387
                   36
    36  H    0.000000
 Framework group  C1[X(C22H14)]
 Deg. of freedom   102
                         Standard orientation:                         
 ---------------------------------------------------------------------
 Center     Atomic      Atomic             Coordinates (Angstroms)
 Number     Number       Type             X           Y           Z
 ---------------------------------------------------------------------
      1          6           0        4.829881   -0.250199    0.384083
      2          6           0        4.136249    0.906565    0.801817
      3          6           0        2.763573    0.995345    0.656813
      4          6           0        2.001225   -0.063665    0.087522
      5          6           0        2.703504   -1.273037   -0.224716
      6          6           0        4.116105   -1.325958   -0.104038
      7          6           0        1.957121   -2.429071   -0.592510
      8          6           0        0.590551   -2.419182   -0.541372
      9          6           0       -0.142348   -1.226073   -0.249971
     10          6           0       -1.594604   -1.258495   -0.077403
     11          6           0       -2.313033   -2.478287   -0.060602
     12          6           0       -3.670634   -2.520919    0.213331
     13          6           0       -4.363449   -1.331270    0.490741
     14          6           0       -3.686407   -0.122565    0.465515
     15          6           0       -2.306334   -0.050726    0.166574
     16          6           0       -1.606691    1.225191    0.036156
     17          6           0       -2.309339    2.451784    0.001144
     18          6           0       -1.669896    3.652935   -0.260519
     19          6           0       -0.295004    3.655403   -0.543003
     20          6           0        0.420465    2.469637   -0.490069
     21          6           0       -0.192214    1.238665   -0.143013
     22          6           0        0.561186   -0.014394   -0.090878
     23          1           0        5.917771   -0.305775    0.484402
     24          1           0        4.684306    1.734575    1.261211
     25          1           0        2.254470    1.878522    1.040797
     26          1           0        4.627795   -2.253733   -0.378280
     27          1           0        2.494769   -3.343901   -0.859005
     28          1           0        0.052588   -3.341765   -0.759169
     29          1           0       -1.792900   -3.419339   -0.240013
     30          1           0       -4.193886   -3.481424    0.227449
     31          1           0       -5.431085   -1.355202    0.727601
     32          1           0       -4.240261    0.790083    0.688958
     33          1           0       -3.390519    2.459287    0.143608
     34          1           0       -2.244359    4.583338   -0.290514
     35          1           0        0.210422    4.583398   -0.825981
     36          1           0        1.471433    2.481847   -0.774664
 ---------------------------------------------------------------------
 Rotational constants (GHZ):           0.4700111           0.2480983           0.1672143
   378 basis functions,   824 primitive gaussians,   400 cartesian basis functions
    73 alpha electrons       73 beta electrons
       nuclear repulsion energy      1579.3216396999 Hartrees.
 NAtoms=   36 NActive=   36 NUniq=   36 SFac= 1.00D+00 NAtFMM=   60 NAOKFM=F Big=F
 ExpMin= 1.22D-01 ExpMax= 6.67D+03 ExpMxC= 2.28D+02 IAcc=3 IRadAn=         5 AccDes= 0.00D+00
 Harris functional with IExCor=  205 and IRadAn=       5 diagonalized for initial guess.
 HarFok:  IExCor=  205 AccDes= 0.00D+00 IRadAn=         5 IDoV= 1 UseB2=F ITyADJ=14
 ICtDFT=  3500011 ScaDFX=  1.000000  1.000000  1.000000  1.000000
 FoFCou: FMM=F IPFlag=           0 FMFlag=      100000 FMFlg1=           0
         NFxFlg=           0 DoJE=T BraDBF=F KetDBF=T FulRan=T
         wScrn=  0.000000 ICntrl=       500 IOpCl=  0 I1Cent=   200000004 NGrid=           0
         NMat0=    1 NMatS0=      1 NMatT0=    0 NMatD0=    1 NMtDS0=    0 NMtDT0=    0
 Petite list used in FoFCou.
 Integral accuracy reduced to 1.0D-05 until final iterations.
 Initial convergence to 1.0D-05 achieved.  Increase integral accuracy.
 SCF Done:  E(RHF) =  -841.354860425     A.U. after   16 cycles
            NFock= 16  Conv=0.89D-08     -V/T= 2.0013
 ExpMin= 1.22D-01 ExpMax= 6.67D+03 ExpMxC= 2.28D+02 IAcc=3 IRadAn=         5 AccDes= 0.00D+00
 HarFok:  IExCor=  205 AccDes= 0.00D+00 IRadAn=         5 IDoV=-2 UseB2=F ITyADJ=14
 ICtDFT= 12500011 ScaDFX=  1.000000  1.000000  1.000000  1.000000
 GSVD:  LWork=        -660 too small for GESVD, short by        2750 words or        2750 for optimal perf.
 NROrb=    356 NOA=    51 NOB=    51 NVA=   305 NVB=   305

 **** Warning!!: The largest alpha MO coefficient is  0.13093564D+02

 Estimated scratch disk usage=  3282528185 words.
 Actual    scratch disk usage=  2472945081 words.
 (rs|ai) integrals will be sorted in core.
 ANorm=    0.1454514949D+01
 E2 =    -0.2853890529D+01 EUMP2 =    -0.84420875095337D+03

 **********************************************************************

            Population analysis using the SCF Density.

 **********************************************************************

 Orbital symmetries:
       Occupied  (A) (A) (A) (A) (A) (A) (A) (A) (A) (A) (A) (A)
                 (A) (A) (A) (A) (A) (A) (A) (A) (A) (A) (A) (A)
                 (A) (A) (A) (A) (A) (A) (A) (A) (A) (A) (A) (A)
                 (A) (A) (A) (A) (A) (A) (A) (A) (A) (A) (A) (A)
                 (A) (A) (A) (A) (A) (A) (A) (A) (A) (A) (A) (A)
                 (A) (A) (A) (A) (A) (A) (A) (A) (A) (A) (A) (A)
                 (A)
       Virtual   (A) (A) (A) (A) (A) (A) (A) (A) (A) (A) (A) (A)
                 (A) (A) (A) (A) (A) (A) (A) (A) (A) (A) (A) (A)
                 (A) (A) (A) (A) (A) (A) (A) (A) (A) (A) (A) (A)
                 (A) (A) (A) (A) (A) (A) (A) (A) (A) (A) (A) (A)
                 (A) (A) (A) (A) (A) (A) (A) (A) (A) (A) (A) (A)
                 (A) (A) (A) (A) (A) (A) (A) (A) (A) (A) (A) (A)
                 (A) (A) (A) (A) (A) (A) (A) (A) (A) (A) (A) (A)
                 (A) (A) (A) (A) (A) (A) (A) (A) (A) (A) (A) (A)
                 (A) (A) (A) (A) (A) (A) (A) (A) (A) (A) (A) (A)
                 (A) (A) (A) (A) (A) (A) (A) (A) (A) (A) (A) (A)
                 (A) (A) (A) (A) (A) (A) (A) (A) (A) (A) (A) (A)
                 (A) (A) (A) (A) (A) (A) (A) (A) (A) (A) (A) (A)
                 (A) (A) (A) (A) (A) (A) (A) (A) (A) (A) (A) (A)
                 (A) (A) (A) (A) (A) (A) (A) (A) (A) (A) (A) (A)
                 (A) (A) (A) (A) (A) (A) (A) (A) (A) (A) (A) (A)
                 (A) (A) (A) (A) (A) (A) (A) (A) (A) (A) (A) (A)
                 (A) (A) (A) (A) (A) (A) (A) (A) (A) (A) (A) (A)
                 (A) (A) (A) (A) (A) (A) (A) (A) (A) (A) (A) (A)
                 (A) (A) (A) (A) (A) (A) (A) (A) (A) (A) (A) (A)
                 (A) (A) (A) (A) (A) (A) (A) (A) (A) (A) (A) (A)
                 (A) (A) (A) (A) (A) (A) (A) (A) (A) (A) (A) (A)
                 (A) (A) (A) (A) (A) (A) (A) (A) (A) (A) (A) (A)
                 (A) (A) (A) (A) (A) (A) (A) (A) (A) (A) (A) (A)
                 (A) (A) (A) (A) (A) (A) (A) (A) (A) (A) (A) (A)
                 (A) (A) (A) (A) (A) (A) (A) (A) (A) (A) (A) (A)
                 (A) (A) (A) (A) (A)
 The electronic state is 1-A.
 Alpha  occ. eigenvalues --  -11.25912 -11.25662 -11.25584 -11.25559 -11.25536
 Alpha  occ. eigenvalues --  -11.25440 -11.25363 -11.25025 -11.24539 -11.24513
 Alpha  occ. eigenvalues --  -11.24475 -11.24466 -11.24405 -11.24396 -11.24381
 Alpha  occ. eigenvalues --  -11.24377 -11.24319 -11.24314 -11.24288 -11.24237
 Alpha  occ. eigenvalues --  -11.24215 -11.24132  -1.19788  -1.16617  -1.14530
 Alpha  occ. eigenvalues --   -1.11548  -1.07270  -1.05606  -1.04177  -1.01429
 Alpha  occ. eigenvalues --   -0.99581  -0.98307  -0.97225  -0.87083  -0.86385
 Alpha  occ. eigenvalues --   -0.85497  -0.82867  -0.80607  -0.80198  -0.76622
 Alpha  occ. eigenvalues --   -0.72065  -0.70874  -0.69692  -0.67625  -0.66337
 Alpha  occ. eigenvalues --   -0.64375  -0.64140  -0.62084  -0.60533  -0.60377
 Alpha  occ. eigenvalues --   -0.59286  -0.58852  -0.57921  -0.57899  -0.56562
 Alpha  occ. eigenvalues --   -0.55102  -0.54219  -0.52262  -0.51927  -0.51196
 Alpha  occ. eigenvalues --   -0.50281  -0.49423  -0.48906  -0.47124  -0.46379
 Alpha  occ. eigenvalues --   -0.44797  -0.39978  -0.37820  -0.35949  -0.33887
 Alpha  occ. eigenvalues --   -0.31012  -0.28422  -0.26465
 Alpha virt. eigenvalues --    0.06574   0.08249   0.09747   0.12857   0.15955
 Alpha virt. eigenvalues --    0.17622   0.18311   0.18726   0.18903   0.20165
 Alpha virt. eigenvalues --    0.20770   0.21047   0.22821   0.23184   0.24587
 Alpha virt. eigenvalues --    0.24869   0.26806   0.27263   0.27629   0.28093
 Alpha virt. eigenvalues --    0.32305   0.33321   0.33996   0.36749   0.38586
 Alpha virt. eigenvalues --    0.39482   0.40216   0.42513   0.43098   0.43903
 Alpha virt. eigenvalues --    0.44172   0.45189   0.45775   0.46064   0.47404
 Alpha virt. eigenvalues --    0.48423   0.49395   0.49924   0.50865   0.53445
 Alpha virt. eigenvalues --    0.56285   0.58575   0.60770   0.61016   0.62342
 Alpha virt. eigenvalues --    0.65054   0.65146   0.65678   0.66367   0.66915
 Alpha virt. eigenvalues --    0.67446   0.67836   0.67952   0.68592   0.68715
 Alpha virt. eigenvalues --    0.69382   0.69512   0.69878   0.70560   0.71138
 Alpha virt. eigenvalues --    0.71690   0.72058   0.72293   0.73259   0.73507
 Alpha virt. eigenvalues --    0.73942   0.74402   0.74620   0.74644   0.74963
 Alpha virt. eigenvalues --    0.75280   0.76134   0.76798   0.77095   0.77477
 Alpha virt. eigenvalues --    0.78030   0.78171   0.79988   0.80298   0.80701
 Alpha virt. eigenvalues --    0.81462   0.82763   0.84176   0.85800   0.86252
 Alpha virt. eigenvalues --    0.87420   0.87876   0.87963   0.88075   0.89191
 Alpha virt. eigenvalues --    0.90062   0.90212   0.90625   0.91588   0.92695
 Alpha virt. eigenvalues --    0.93386   0.94019   0.94443   0.95117   0.95702
 Alpha virt. eigenvalues --    0.96031   0.98063   0.98429   0.99090   1.00392
 Alpha virt. eigenvalues --    1.01821   1.03242   1.05219   1.08351   1.08998
 Alpha virt. eigenvalues --    1.10208   1.11152   1.11629   1.11978   1.12758
 Alpha virt. eigenvalues --    1.13686   1.14067   1.14414   1.14818   1.15454
 Alpha virt. eigenvalues --    1.15828   1.16332   1.16614   1.16978   1.17891
 Alpha virt. eigenvalues --    1.18221   1.18973   1.19737   1.20925   1.21308
 Alpha virt. eigenvalues --    1.21967   1.22166   1.22699   1.23667   1.24890
 Alpha virt. eigenvalues --    1.25454   1.25791   1.26508   1.27584   1.28043
 Alpha virt. eigenvalues --    1.28929   1.29770   1.30218   1.30883   1.31401
 Alpha virt. eigenvalues --    1.32726   1.33173   1.35845   1.36545   1.37813
 Alpha virt. eigenvalues --    1.39635   1.41018   1.42960   1.44772   1.46908
 Alpha virt. eigenvalues --    1.51747   1.53836   1.54295   1.56338   1.56580
 Alpha virt. eigenvalues --    1.58615   1.59781   1.60294   1.61419   1.62479
 Alpha virt. eigenvalues --    1.64306   1.64633   1.65873   1.67365   1.68719
 Alpha virt. eigenvalues --    1.70376   1.71301   1.72608   1.73879   1.74199
 Alpha virt. eigenvalues --    1.74564   1.74804   1.75203   1.75868   1.76341
 Alpha virt. eigenvalues --    1.77149   1.77728   1.79301   1.80778   1.82337
 Alpha virt. eigenvalues --    1.83460   1.84004   1.85215   1.86052   1.87406
 Alpha virt. eigenvalues --    1.88111   1.88605   1.89387   1.89894   1.90175
 Alpha virt. eigenvalues --    1.90901   1.91390   1.91530   1.92099   1.92896
 Alpha virt. eigenvalues --    1.93554   1.93903   1.94074   1.95386   1.96418
 Alpha virt. eigenvalues --    1.96731   1.97178   1.98347   1.99457   1.99543
 Alpha virt. eigenvalues --    2.00464   2.01466   2.02162   2.02994   2.04008
 Alpha virt. eigenvalues --    2.04348   2.06226   2.06446   2.07007   2.08111
 Alpha virt. eigenvalues --    2.10315   2.10580   2.11389   2.12111   2.13264
 Alpha virt. eigenvalues --    2.13639   2.14075   2.14740   2.15261   2.15660
 Alpha virt. eigenvalues --    2.15997   2.16197   2.17077   2.18001   2.18767
 Alpha virt. eigenvalues --    2.20092   2.20526   2.21780   2.23186   2.23561
 Alpha virt. eigenvalues --    2.25234   2.25900   2.27104   2.27736   2.28680
 Alpha virt. eigenvalues --    2.29058   2.31273   2.31983   2.33830   2.34065
 Alpha virt. eigenvalues --    2.35276   2.36534   2.38748   2.38855   2.39790
 Alpha virt. eigenvalues --    2.40640   2.42938   2.46724   2.48533   2.49218
 Alpha virt. eigenvalues --    2.50404   2.51906   2.54708   2.55546   2.56752
 Alpha virt. eigenvalues --    2.57185   2.59770   2.63510   2.67063   2.69501
 Alpha virt. eigenvalues --    2.69554   2.70210   2.72266   2.72619   2.73535
 Alpha virt. eigenvalues --    2.76116   2.76482   2.78212   2.78837   2.82065
 Alpha virt. eigenvalues --    2.82808   2.86587   2.91086   2.93765   2.98508
 Alpha virt. eigenvalues --    2.99707   3.01355   3.02983   3.03832   3.04759
 Alpha virt. eigenvalues --    3.06085   3.07011   3.09619   3.12226   3.13929
 Alpha virt. eigenvalues --    3.15778   3.21001   3.24157   3.28913   3.31855
 Alpha virt. eigenvalues --    3.56336   3.68998   3.81555   3.88699   3.98540
          Condensed to atoms (all electrons):
 Mulliken charges:
               1
     1  C   -0.017970
     2  C   -0.004763
     3  C   -0.033379
     4  C   -0.089458
     5  C   -0.090065
     6  C    0.028223
     7  C    0.048191
     8  C   -0.011181
     9  C   -0.034674
    10  C   -0.031040
    11  C   -0.019512
    12  C    0.006859
    13  C    0.007185
    14  C   -0.017686
    15  C   -0.054426
    16  C   -0.030509
    17  C   -0.015549
    18  C    0.001137
    19  C   -0.001326
    20  C   -0.024324
    21  C   -0.082670
    22  C    0.070941
    23  H    0.029702
    24  H    0.029290
    25  H    0.042854
    26  H    0.018778
    27  H    0.016949
    28  H    0.027647
    29  H    0.026418
    30  H    0.026640
    31  H    0.026842
    32  H    0.025942
    33  H    0.024845
    34  H    0.026881
    35  H    0.028349
    36  H    0.044858
 Sum of Mulliken charges =  -0.00000
 Mulliken charges with hydrogens summed into heavy atoms:
               1
     1  C    0.011733
     2  C    0.024527
     3  C    0.009475
     4  C   -0.089458
     5  C   -0.090065
     6  C    0.047001
     7  C    0.065140
     8  C    0.016466
     9  C   -0.034674
    10  C   -0.031040
    11  C    0.006906
    12  C    0.033500
    13  C    0.034028
    14  C    0.008256
    15  C   -0.054426
    16  C   -0.030509
    17  C    0.009296
    18  C    0.028018
    19  C    0.027022
    20  C    0.020534
    21  C   -0.082670
    22  C    0.070941
 Electronic spatial extent (au):  <R**2>=           6271.2120
 Charge=             -0.0000 electrons
 Dipole moment (field-independent basis, Debye):
    X=             -0.0407    Y=             -0.0714    Z=              0.0320  Tot=              0.0882
 Unable to Open any file for archive entry.
 1\1\GINC-NODE01\SP\RMP2-FC\CC-pVDZ\C22H14\XUHJ\11-Oct-2024\0\\#T MP2/c
 c-pVDZ symm=veryloose\\c1ccc2c(c1)ccc1c3ccccc3c3ccccc3c21\\0,1\C,0,4.8
 29881,-0.2502,0.384083\C,0,4.136249,0.906564,0.801817\C,0,2.763573,0.9
 95345,0.656813\C,0,2.001225,-0.063665,0.087522\C,0,2.703504,-1.273037,
 -0.224716\C,0,4.116105,-1.325959,-0.104038\C,0,1.957121,-2.429071,-0.5
 9251\C,0,0.590551,-2.419182,-0.541372\C,0,-0.142348,-1.226073,-0.24997
 1\C,0,-1.594604,-1.258495,-0.077403\C,0,-2.313033,-2.478287,-0.060602\
 C,0,-3.670634,-2.520919,0.213331\C,0,-4.363449,-1.33127,0.490741\C,0,-
 3.686407,-0.122565,0.465515\C,0,-2.306334,-0.050726,0.166574\C,0,-1.60
 6691,1.225191,0.036156\C,0,-2.309339,2.451784,0.001144\C,0,-1.669896,3
 .652935,-0.260519\C,0,-0.295004,3.655403,-0.543003\C,0,0.420465,2.4696
 37,-0.490069\C,0,-0.192214,1.238665,-0.143013\C,0,0.561186,-0.014394,-
 0.090878\H,0,5.917771,-0.305776,0.484402\H,0,4.684306,1.734574,1.26121
 1\H,0,2.25447,1.878522,1.040797\H,0,4.627795,-2.253734,-0.37828\H,0,2.
 494769,-3.343901,-0.859005\H,0,0.052588,-3.341765,-0.759169\H,0,-1.792
 9,-3.419339,-0.240013\H,0,-4.193886,-3.481424,0.227449\H,0,-5.431085,-
 1.355201,0.727601\H,0,-4.240261,0.790083,0.688958\H,0,-3.390519,2.4592
 87,0.143608\H,0,-2.244359,4.583338,-0.290514\H,0,0.210422,4.583398,-0.
 825981\H,0,1.471433,2.481847,-0.774664\\Version=ES64L-G16RevC.01\State
 =1-A\HF=-841.3548604\MP2=-844.208751\RMSD=8.860e-09\PG=C01 [X(C22H14)]
 \\@
 The archive entry for this job was punched.


 YOU CAN LEAD A BOY TO COLLEGE....
 BUT YOU CANNOT MAKE HIM THINK....
           ELBERT HUBBARD
 Job cpu time:       0 days  0 hours 17 minutes  3.9 seconds.
 Elapsed time:       0 days  0 hours  2 minutes  8.0 seconds.
 File lengths (MBytes):  RWF=  18949 Int=      0 D2E=      0 Chk=     10 Scr=      1
 Normal termination of Gaussian 16 at Fri Oct 11 15:42:50 2024.
