 Entering Gaussian System, Link 0=g16
 Initial command:
 /opt/g16/l1.exe "/tmp/Gau-2548406.inp" -scrdir="/tmp/"
 Entering Link 1 = /opt/g16/l1.exe PID=   2548408.
  
 Copyright (c) 1988-2019, Gaussian, Inc.  All Rights Reserved.
  
 This is part of the Gaussian(R) 16 program.  It is based on
 the Gaussian(R) 09 system (copyright 2009, Gaussian, Inc.),
 the Gaussian(R) 03 system (copyright 2003, Gaussian, Inc.),
 the Gaussian(R) 98 system (copyright 1998, Gaussian, Inc.),
 the Gaussian(R) 94 system (copyright 1995, Gaussian, Inc.),
 the Gaussian 92(TM) system (copyright 1992, Gaussian, Inc.),
 the Gaussian 90(TM) system (copyright 1990, Gaussian, Inc.),
 the Gaussian 88(TM) system (copyright 1988, Gaussian, Inc.),
 the Gaussian 86(TM) system (copyright 1986, Carnegie Mellon
 University), and the Gaussian 82(TM) system (copyright 1983,
 Carnegie Mellon University). Gaussian is a federally registered
 trademark of Gaussian, Inc.
  
 This software contains proprietary and confidential information,
 including trade secrets, belonging to Gaussian, Inc.
  
 This software is provided under written license and may be
 used, copied, transmitted, or stored only in accord with that
 written license.
  
 The following legend is applicable only to US Government
 contracts under FAR:
  
                    RESTRICTED RIGHTS LEGEND
  
 Use, reproduction and disclosure by the US Government is
 subject to restrictions as set forth in subparagraphs (a)
 and (c) of the Commercial Computer Software - Restricted
 Rights clause in FAR 52.227-19.
  
 Gaussian, Inc.
 340 Quinnipiac St., Bldg. 40, Wallingford CT 06492
  
  
 ---------------------------------------------------------------
 Warning -- This program may not be used in any manner that
 competes with the business of Gaussian, Inc. or will provide
 assistance to any competitor of Gaussian, Inc.  The licensee
 of this program is prohibited from giving any competitor of
 Gaussian, Inc. access to this program.  By using this program,
 the user acknowledges that Gaussian, Inc. is engaged in the
 business of creating and licensing software in the field of
 computational chemistry and represents and warrants to the
 licensee that it is not a competitor of Gaussian, Inc. and that
 it will not use this program in any manner prohibited above.
 ---------------------------------------------------------------
  

 Cite this work as:
 Gaussian 16, Revision C.01,
 M. J. Frisch, G. W. Trucks, H. B. Schlegel, G. E. Scuseria, 
 M. A. Robb, J. R. Cheeseman, G. Scalmani, V. Barone, 
 G. A. Petersson, H. Nakatsuji, X. Li, M. Caricato, A. V. Marenich, 
 J. Bloino, B. G. Janesko, R. Gomperts, B. Mennucci, H. P. Hratchian, 
 J. V. Ortiz, A. F. Izmaylov, J. L. Sonnenberg, D. Williams-Young, 
 F. Ding, F. Lipparini, F. Egidi, J. Goings, B. Peng, A. Petrone, 
 T. Henderson, D. Ranasinghe, V. G. Zakrzewski, J. Gao, N. Rega, 
 G. Zheng, W. Liang, M. Hada, M. Ehara, K. Toyota, R. Fukuda, 
 J. Hasegawa, M. Ishida, T. Nakajima, Y. Honda, O. Kitao, H. Nakai, 
 T. Vreven, K. Throssell, J. A. Montgomery, Jr., J. E. Peralta, 
 F. Ogliaro, M. J. Bearpark, J. J. Heyd, E. N. Brothers, K. N. Kudin, 
 V. N. Staroverov, T. A. Keith, R. Kobayashi, J. Normand, 
 K. Raghavachari, A. P. Rendell, J. C. Burant, S. S. Iyengar, 
 J. Tomasi, M. Cossi, J. M. Millam, M. Klene, C. Adamo, R. Cammi, 
 J. W. Ochterski, R. L. Martin, K. Morokuma, O. Farkas, 
 J. B. Foresman, and D. J. Fox, Gaussian, Inc., Wallingford CT, 2019.
 
 ******************************************
 Gaussian 16:  ES64L-G16RevC.01  3-Jul-2019
                11-Oct-2024 
 ******************************************
 %nprocshared=8
 Will use up to    8 processors via shared memory.
 %mem=10400MB
 -----------------------------
 #T MP2/cc-pVDZ symm=veryloose
 -----------------------------
 ------------------------------------------
 c1ccc2c(c1)ccc1cc3cc4c(ccc5ccccc54)cc3cc12
 ------------------------------------------
 Symbolic Z-matrix:
 Charge =  0 Multiplicity = 1
 C                     0.89804   6.7841    0. 
 C                     1.95076   5.85266   0. 
 C                     1.67955   4.49047   0. 
 C                     0.35521   4.00124   0. 
 C                    -0.70837   4.95049   0. 
 C                    -0.41275   6.33148   0. 
 C                    -2.07774   4.49355   0. 
 C                    -2.38321   3.17023   0. 
 C                    -1.3526    2.16185   0. 
 C                    -1.67955   0.80877   0. 
 C                    -0.69251  -0.19998   0. 
 C                    -1.01265  -1.57766   0. 
 C                    -0.0378   -2.56949   0. 
 C                     1.3526   -2.16185   0. 
 C                     2.38321  -3.17023   0. 
 C                     2.07774  -4.49355   0. 
 C                     0.70837  -4.95049   0. 
 C                     0.41275  -6.33148   0. 
 C                    -0.89804  -6.7841    0. 
 C                    -1.95076  -5.85266   0. 
 C                    -1.67955  -4.49047   0. 
 C                    -0.35521  -4.00124   0. 
 C                     1.67955  -0.80877   0. 
 C                     0.69251   0.19998   0. 
 C                     1.01265   1.57766   0. 
 C                     0.0378    2.56949   0. 
 H                     1.11159   7.85693   0. 
 H                     2.98861   6.19843   0. 
 H                     2.51798   3.79164   0. 
 H                    -1.24269   7.04499   0. 
 H                    -2.87167   5.2466    0. 
 H                    -3.4263    2.83967   0. 
 H                    -2.73467   0.51715   0. 
 H                    -2.07137  -1.844     0. 
 H                     3.4263   -2.83967   0. 
 H                     2.87167  -5.2466    0. 
 H                     1.24269  -7.04499   0. 
 H                    -1.11159  -7.85693   0. 
 H                    -2.98861  -6.19843   0. 
 H                    -2.51798  -3.79164   0. 
 H                     2.73467  -0.51715   0. 
 H                     2.07137   1.844     0. 
 
                    Distance matrix (angstroms):
                    1          2          3          4          5
     1  C    0.000000
     2  C    1.405630   0.000000
     3  C    2.423120   1.388927   0.000000
     4  C    2.835310   2.444081   1.411816   0.000000
     5  C    2.437767   2.808005   2.431828   1.425576   0.000000
     6  C    1.386741   2.411522   2.786938   2.453517   1.412274
     7  C    3.755249   4.251583   3.757286   2.482252   1.443590
     8  C    4.881261   5.096932   4.271888   2.861730   2.444260
     9  C    5.141068   4.953203   3.823136   2.509971   2.862083
    10  C    6.507583   6.214499   4.983821   3.785781   4.254063
    11  C    7.162909   6.604642   5.256135   4.329893   5.150493
    12  C    8.577284   7.999463   6.638531   5.744142   6.535235
    13  C    9.400292   8.653725   7.265830   6.582475   7.549817
    14  C    8.957497   8.036804   6.660352   6.243280   7.404931
    15  C   10.064511   9.033243   7.692944   7.452701   8.689296
    16  C   11.339185  10.346988   8.992838   8.667675   9.846433
    17  C   11.736125  10.874353   9.490778   8.958696  10.001826
    18  C   13.124554  12.280824  10.895837  10.332879  11.337533
    19  C   13.686568  12.953897  11.565464  10.857915  11.736125
    20  C   12.953897  12.338410  10.961727  10.120123  10.874353
    21  C   11.565464  10.961727   9.588576   8.732091   9.490778
    22  C   10.857915  10.120123   8.732091   8.033957   8.958696
    23  C    7.632982   6.666945   5.299235   4.988995   6.234676
    24  C    6.587330   5.791027   4.402562   3.816198   4.952756
    25  C    5.207705   4.376721   2.988180   2.511172   3.786540
    26  C    4.301511   3.799820   2.526957   1.466516   2.495181
    27  H    1.093871   2.172854   3.414033   3.929175   3.429233
    28  H    2.171059   1.093938   2.151927   3.429646   3.901931
    29  H    3.402799   2.137650   1.091483   2.172910   3.428163
    30  H    2.156568   3.408775   3.881370   3.437682   2.161579
    31  H    4.071198   4.860364   4.613604   3.458853   2.183471
    32  H    5.853072   6.163669   5.366077   3.955883   3.441317
    33  H    7.243709   7.100769   5.939074   4.656850   4.874464
    34  H    9.124775   8.684240   7.361714   6.328909   6.929849
    35  H    9.950330   8.816678   7.535387   7.498645   8.819413
    36  H   12.191516  11.137401   9.809776   9.584113  10.807283
    37  H   13.833386  12.917071  11.543727  11.081826  12.153112
    38  H   14.778308  14.047446  12.658935  11.948543  12.813762
    39  H   13.551838  13.024063  11.663805  10.733802  11.379716
    40  H   11.113756  10.629308   9.285075   8.305676   8.927458
    41  H    7.528708   6.417862   5.117567   5.106631   6.461391
    42  H    5.077531   4.010476   2.675318   2.756611   4.168600
                    6          7          8          9         10
     6  C    0.000000
     7  C    2.479950   0.000000
     8  C    3.725077   1.358122   0.000000
     9  C    4.274233   2.441850   1.441864   0.000000
    10  C    5.666137   3.706235   2.464067   1.392028   0.000000
    11  C    6.537444   4.893677   3.770512   2.452341   1.411320
    12  C    7.931853   6.163926   4.941745   3.754932   2.477858
    13  C    8.908859   7.351724   6.200425   4.910631   3.756056
    14  C    8.674854   7.487427   6.510553   5.100247   4.244820
    15  C    9.904530   8.867551   7.932215   6.510553   5.686683
    16  C   11.107821   9.901307   8.867551   7.487427   6.498595
    17  C   11.337533   9.846433   8.689296   7.404931   6.234676
    18  C   12.689831  11.107821   9.904530   8.674854   7.440482
    19  C   13.124554  11.339185  10.064511   8.957497   7.632982
    20  C   12.280824  10.346988   9.033243   8.036804   6.666945
    21  C   10.895837   8.992838   7.692944   6.660352   5.299235
    22  C   10.332879   8.667675   7.452701   6.243280   4.988995
    23  C    7.440482   6.498595   5.686683   4.244820   3.728264
    24  C    6.230316   5.109694   4.275788   2.833971   2.448930
    25  C    4.962916   4.248868   3.750746   2.436322   2.799842
    26  C    3.788871   2.859631   2.494424   1.448920   2.459558
    27  H    2.156527   4.635095   5.846261   6.205327   7.580701
    28  H    3.403965   5.345515   6.166562   5.927908   7.130235
    29  H    3.878140   4.649013   4.940428   4.199716   5.149449
    30  H    1.094484   2.684614   4.039130   4.884373   6.251506
    31  H    2.687609   1.094268   2.133058   3.438497   4.595165
    32  H    4.612392   2.133993   1.094212   2.181663   2.678748
    33  H    6.260809   4.030302   2.676257   2.148296   1.094677
    34  H    8.342025   6.337550   5.023912   4.069824   2.681544
    35  H    9.942242   9.168994   8.358778   6.917590   6.275407
    36  H   12.034921  10.925528   9.922537   8.528168   7.575030
    37  H   13.478512  12.006793  10.839637   9.565639   8.379793
    38  H   14.205603  12.388208  11.100230  10.021678   8.684285
    39  H   12.791938  10.730711   9.388198   8.518856   7.128427
    40  H   10.339704   8.296877   6.963170   6.066482   4.676185
    41  H    7.537233   6.947396   6.307881   4.887002   4.609052
    42  H    5.129160   4.922922   4.647805   3.438685   3.891152
                   11         12         13         14         15
    11  C    0.000000
    12  C    1.414387   0.000000
    13  C    2.458295   1.390704   0.000000
    14  C    2.833971   2.436322   1.448920   0.000000
    15  C    4.275788   3.750746   2.494424   1.441864   0.000000
    16  C    5.109694   4.248868   2.859631   2.441850   1.358122
    17  C    4.952756   3.786540   2.495181   2.862083   2.444260
    18  C    6.230316   4.962916   3.788871   4.274233   3.725077
    19  C    6.587330   5.207705   4.301511   5.141068   4.881261
    20  C    5.791027   4.376721   3.799820   4.953203   5.096932
    21  C    4.402562   2.988180   2.526957   3.823136   4.271888
    22  C    3.816198   2.511172   1.466516   2.509971   2.861730
    23  C    2.448930   2.799842   2.459558   1.392028   2.464067
    24  C    1.441604   2.463238   2.864141   2.452341   3.770512
    25  C    2.463238   3.749380   4.278115   3.754932   4.941745
    26  C    2.864141   4.278115   5.139534   4.910631   6.200425
    27  H    8.256422   9.670770  10.489578  10.021678  11.100230
    28  H    7.381755   8.745152   9.275538   8.518856   9.388198
    29  H    5.122526   6.426097   6.855362   6.066482   6.963170
    30  H    7.265829   8.625716   9.689682   9.565639  10.839637
    31  H    5.866346   7.072942   8.313971   8.528168   9.922537
    32  H    4.088163   5.033735   6.382861   6.917590   8.358778
    33  H    2.164417   2.711746   4.098833   4.887002   6.307881
    34  H    2.145705   1.091705   2.159104   3.438685   4.647805
    35  H    4.892083   4.614854   3.474613   2.181663   1.094212
    36  H    6.178329   5.343133   3.953725   3.438497   2.133058
    37  H    7.113306   5.914239   4.655077   4.884373   4.039130
    38  H    7.668407   6.280047   5.395371   6.205327   5.846261
    39  H    6.422892   5.025534   4.677237   5.927908   6.166562
    40  H    4.028945   2.677266   2.764955   4.199716   4.940428
    41  H    3.441818   3.894490   3.449446   2.148296   2.676257
    42  H    3.437561   4.606394   4.891568   4.069824   5.023912
                   16         17         18         19         20
    16  C    0.000000
    17  C    1.443590   0.000000
    18  C    2.479950   1.412274   0.000000
    19  C    3.755249   2.437767   1.386741   0.000000
    20  C    4.251583   2.808005   2.411522   1.405630   0.000000
    21  C    3.757286   2.431828   2.786938   2.423120   1.388927
    22  C    2.482252   1.425576   2.453517   2.835310   2.444081
    23  C    3.706235   4.254063   5.666137   6.507583   6.214499
    24  C    4.893677   5.150493   6.537444   7.162909   6.604642
    25  C    6.163926   6.535235   7.931853   8.577284   7.999463
    26  C    7.351724   7.549817   8.908859   9.400292   8.653725
    27  H   12.388208  12.813762  14.205603  14.778308  14.047446
    28  H   10.730711  11.379716  12.791938  13.551838  13.024063
    29  H    8.296877   8.927458  10.339704  11.113756  10.629308
    30  H   12.006793  12.153112  13.478512  13.833386  12.917071
    31  H   10.925528  10.807283  12.034921  12.191516  11.137401
    32  H    9.168994   8.819413   9.942242   9.950330   8.816678
    33  H    6.947396   6.461391   7.537233   7.528708   6.417862
    34  H    4.922922   4.168600   5.129160   5.077531   4.010476
    35  H    2.133993   3.441317   4.612392   5.853072   6.163669
    36  H    1.094268   2.183471   2.687609   4.071198   4.860364
    37  H    2.684614   2.161579   1.094484   2.156568   3.408775
    38  H    4.635095   3.429233   2.156527   1.093871   2.172854
    39  H    5.345515   3.901931   3.403965   2.171059   1.093938
    40  H    4.649013   3.428163   3.878140   3.402799   2.137650
    41  H    4.030302   4.874464   6.260809   7.243709   7.100769
    42  H    6.337550   6.929849   8.342025   9.124775   8.684240
                   21         22         23         24         25
    21  C    0.000000
    22  C    1.411816   0.000000
    23  C    4.983821   3.785781   0.000000
    24  C    5.256135   4.329893   1.411320   0.000000
    25  C    6.638531   5.744142   2.477858   1.414387   0.000000
    26  C    7.265830   6.582475   3.756056   2.458295   1.390704
    27  H   12.658935  11.948543   8.684285   7.668407   6.280047
    28  H   11.663805  10.733802   7.128427   6.422892   5.025534
    29  H    9.285075   8.305676   4.676185   4.028945   2.677266
    30  H   11.543727  11.081826   8.379793   7.113306   5.914239
    31  H    9.809776   9.584113   7.575030   6.178329   5.343133
    32  H    7.535387   7.498645   6.275407   4.892083   4.614854
    33  H    5.117567   5.106631   4.609052   3.441818   3.894490
    34  H    2.675318   2.756611   3.891152   3.437561   4.606394
    35  H    5.366077   3.955883   2.678748   4.088163   5.033735
    36  H    4.613604   3.458853   4.595165   5.866346   7.072942
    37  H    3.881370   3.437682   6.251506   7.265829   8.625716
    38  H    3.414033   3.929175   7.580701   8.256422   9.670770
    39  H    2.151927   3.429646   7.130235   7.381755   8.745152
    40  H    1.091483   2.172910   5.149449   5.122526   6.426097
    41  H    5.939074   4.656850   1.094677   2.164417   2.711746
    42  H    7.361714   6.328909   2.681544   2.145705   1.091705
                   26         27         28         29         30
    26  C    0.000000
    27  H    5.395371   0.000000
    28  H    4.677237   2.504761   0.000000
    29  H    2.764955   4.301686   2.452374   0.000000
    30  H    4.655077   2.490353   4.315155   4.972618   0.000000
    31  H    3.953725   4.762369   5.937080   5.582589   2.426476
    32  H    3.474613   6.765003   7.241018   6.020025   4.738444
    33  H    3.449446   8.286499   8.064301   6.189722   6.696173
    34  H    4.891568  10.209757   9.501793   7.267912   8.927530
    35  H    6.382861  10.944179   9.048693   6.693228  10.931874
    36  H    8.313971  13.221209  11.445631   9.045160  12.961912
    37  H    9.689682  14.902493  13.358011  10.911412  14.307500
    38  H   10.489578  15.870341  14.641201  12.200939  14.902493
    39  H    9.275538  14.641201  13.762612  11.407198  13.358011
    40  H    6.855362  12.200939  11.407198   9.103137  10.911412
    41  H    4.098833   8.529918   6.720379   4.314232   8.544311
    42  H    2.159104   6.089046   4.449993   1.998194   6.167110
                   31         32         33         34         35
    31  H    0.000000
    32  H    2.470006   0.000000
    33  H    4.731439   2.423316   0.000000
    34  H    7.135622   4.875713   2.452545   0.000000
    35  H   10.249496   8.900163   7.016102   5.587095   0.000000
    36  H   11.962161  10.249496   8.040637   6.000943   2.470006
    37  H   12.961912  10.931874   8.544311   6.167110   4.738444
    38  H   13.221209  10.944179   8.529918   6.089046   6.765003
    39  H   11.445631   9.048693   6.720379   4.449993   7.241018
    40  H    9.045160   6.693228   4.314232   1.998194   6.020025
    41  H    8.040637   7.016102   5.566273   4.985829   2.423316
    42  H    6.000943   5.587095   4.985829   5.546488   4.875713
                   36         37         38         39         40
    36  H    0.000000
    37  H    2.426476   0.000000
    38  H    4.762369   2.490353   0.000000
    39  H    5.937080   4.315155   2.504761   0.000000
    40  H    5.582589   4.972618   4.301686   2.452374   0.000000
    41  H    4.731439   6.696173   8.286499   8.064301   6.189722
    42  H    7.135622   8.927530  10.209757   9.501793   7.267912
                   41         42
    41  H    0.000000
    42  H    2.452545   0.000000
 Framework group  C2H[SGH(C26H16)]
 Deg. of freedom    41
                         Standard orientation:                         
 ---------------------------------------------------------------------
 Center     Atomic      Atomic             Coordinates (Angstroms)
 Number     Number       Type             X           Y           Z
 ---------------------------------------------------------------------
      1          6           0        0.898043   -6.784103    0.000000
      2          6           0        1.950759   -5.852660    0.000000
      3          6           0        1.679549   -4.490469    0.000000
      4          6           0        0.355207   -4.001243    0.000000
      5          6           0       -0.708372   -4.950489    0.000000
      6          6           0       -0.412750   -6.331476    0.000000
      7          6           0       -2.077736   -4.493549    0.000000
      8          6           0       -2.383207   -3.170226    0.000000
      9          6           0       -1.352598   -2.161853    0.000000
     10          6           0       -1.679549   -0.808766    0.000000
     11          6           0       -0.692505    0.199980    0.000000
     12          6           0       -1.012647    1.577659    0.000000
     13          6           0       -0.037798    2.569489    0.000000
     14          6           0        1.352598    2.161853    0.000000
     15          6           0        2.383207    3.170226    0.000000
     16          6           0        2.077736    4.493549    0.000000
     17          6           0        0.708372    4.950489    0.000000
     18          6           0        0.412750    6.331476    0.000000
     19          6           0       -0.898043    6.784103    0.000000
     20          6           0       -1.950759    5.852660    0.000000
     21          6           0       -1.679549    4.490469    0.000000
     22          6           0       -0.355207    4.001243    0.000000
     23          6           0        1.679549    0.808766    0.000000
     24          6           0        0.692505   -0.199980    0.000000
     25          6           0        1.012647   -1.577659    0.000000
     26          6           0        0.037798   -2.569489    0.000000
     27          1           0        1.111589   -7.856927    0.000000
     28          1           0        2.988614   -6.198432    0.000000
     29          1           0        2.517984   -3.791640    0.000000
     30          1           0       -1.242687   -7.044989    0.000000
     31          1           0       -2.871671   -5.246602    0.000000
     32          1           0       -3.426295   -2.839670    0.000000
     33          1           0       -2.734668   -0.517147    0.000000
     34          1           0       -2.071365    1.843998    0.000000
     35          1           0        3.426295    2.839670    0.000000
     36          1           0        2.871671    5.246602    0.000000
     37          1           0        1.242687    7.044989    0.000000
     38          1           0       -1.111589    7.856927    0.000000
     39          1           0       -2.988614    6.198432    0.000000
     40          1           0       -2.517984    3.791640    0.000000
     41          1           0        2.734668    0.517147    0.000000
     42          1           0        2.071365   -1.843998    0.000000
 ---------------------------------------------------------------------
 Rotational constants (GHZ):           0.7373731           0.0867123           0.0775883
   444 basis functions,   970 primitive gaussians,   470 cartesian basis functions
    86 alpha electrons       86 beta electrons
       nuclear repulsion energy      1934.6837815900 Hartrees.
 NAtoms=   42 NActive=   42 NUniq=   21 SFac= 4.00D+00 NAtFMM=   60 NAOKFM=F Big=F
 ExpMin= 1.22D-01 ExpMax= 6.67D+03 ExpMxC= 2.28D+02 IAcc=3 IRadAn=         5 AccDes= 0.00D+00
 Harris functional with IExCor=  205 and IRadAn=       5 diagonalized for initial guess.
 HarFok:  IExCor=  205 AccDes= 0.00D+00 IRadAn=         5 IDoV= 1 UseB2=F ITyADJ=14
 ICtDFT=  3500011 ScaDFX=  1.000000  1.000000  1.000000  1.000000
 FoFCou: FMM=F IPFlag=           0 FMFlag=      100000 FMFlg1=           0
         NFxFlg=           0 DoJE=T BraDBF=F KetDBF=T FulRan=T
         wScrn=  0.000000 ICntrl=       500 IOpCl=  0 I1Cent=   200000004 NGrid=           0
         NMat0=    1 NMatS0=      1 NMatT0=    0 NMatD0=    1 NMtDS0=    0 NMtDT0=    0
 Petite list used in FoFCou.
 Initial guess orbital symmetries:
       Occupied  (BU) (AG) (BU) (AG) (AG) (BU) (BU) (AG) (BU) (AG)
                 (BU) (AG) (BU) (AG) (BU) (AG) (AG) (BU) (AG) (BU)
                 (BU) (AG) (BU) (AG) (BU) (AG) (AG) (BU) (AG) (BU)
                 (AG) (BU) (BU) (AG) (AG) (BU) (BU) (AG) (AG) (BU)
                 (BU) (AG) (AG) (BU) (AG) (BU) (AG) (BU) (BU) (AG)
                 (AG) (BU) (AG) (BU) (AG) (BU) (AG) (BU) (AG) (BU)
                 (AG) (BU) (BU) (AG) (AG) (AU) (BU) (BG) (BU) (AG)
                 (AU) (AG) (BU) (AG) (BG) (BU) (AG) (AU) (BG) (BG)
                 (AU) (AU) (BG) (BG) (AU) (AU)
       Virtual   (BG) (BG) (AU) (AU) (BG) (BG) (AU) (AU) (BG) (AU)
                 (BU) (BU) (AG) (AG) (BG) (AG) (BU) (BU) (AG) (AU)
                 (BU) (AG) (AG) (BU) (BU) (BG) (AG) (BU) (AG) (AG)
                 (BU) (BU) (BU) (AG) (BU) (AG) (BU) (AG) (AG) (BU)
                 (AG) (BU) (AG) (BU) (AG) (BU) (AG) (BU) (BU) (AG)
                 (BU) (AG) (BU) (AG) (AU) (BU) (AG) (BG) (BU) (BU)
                 (AG) (AU) (BG) (AG) (BU) (AG) (AG) (AU) (BG) (BU)
                 (AG) (BU) (BU) (AG) (AG) (BU) (BG) (BU) (BU) (AG)
                 (AG) (AU) (AG) (AU) (BU) (BU) (AG) (BU) (AG) (AU)
                 (BG) (AG) (BG) (BU) (BG) (AU) (BG) (AU) (BU) (AU)
                 (AG) (BG) (BU) (AG) (AG) (BU) (AG) (BU) (AU) (AG)
                 (BU) (AU) (BG) (BU) (AG) (BG) (BU) (AG) (AU) (BU)
                 (AG) (BG) (BG) (BG) (AU) (AU) (AG) (BU) (AG) (BU)
                 (AU) (BG) (AG) (BU) (AG) (BU) (BU) (BG) (AG) (AU)
                 (AG) (BU) (BU) (BG) (AG) (AU) (BU) (AG) (BG) (AU)
                 (BG) (AG) (BU) (AU) (AU) (BU) (BG) (AG) (BG) (AU)
                 (BU) (AG) (AU) (AG) (BU) (BG) (BG) (AU) (BU) (AG)
                 (AG) (BU) (AU) (AG) (BU) (AG) (BU) (AG) (BU) (AG)
                 (BU) (AG) (BU) (AU) (AG) (BU) (BG) (AG) (BU) (BU)
                 (AU) (BG) (AG) (BU) (BG) (AG) (AG) (BU) (AU) (BG)
                 (AG) (BU) (AG) (BU) (AU) (AG) (AG) (BG) (BU) (BU)
                 (BG) (AU) (AG) (AU) (BU) (BG) (AG) (BU) (AG) (AG)
                 (BU) (AG) (BU) (BG) (BU) (AG) (BU) (AG) (AU) (BU)
                 (AG) (BU) (BG) (AG) (AU) (AU) (BG) (BU) (AU) (BG)
                 (BU) (AG) (BG) (AU) (AG) (BU) (AU) (BG) (BU) (AG)
                 (BG) (BU) (AG) (AU) (AG) (AG) (BU) (AG) (BG) (BU)
                 (AU) (BU) (AG) (BG) (BU) (AU) (AG) (BU) (BU) (AG)
                 (AG) (BG) (AU) (AG) (BU) (BU) (AU) (AG) (BG) (AG)
                 (BU) (BU) (AG) (BG) (BU) (AU) (AG) (AG) (BU) (BU)
                 (AU) (AG) (BU) (AG) (BU) (BG) (AU) (BG) (AG) (BU)
                 (BU) (AG) (BU) (AG) (AU) (BG) (BU) (AG) (BU) (AG)
                 (BU) (AG) (AU) (BG) (BU) (AG) (BU) (BU) (AU) (AG)
                 (BG) (AG) (BU) (AG) (BU) (AG) (BU) (AG) (BU) (AG)
                 (AG) (BU) (AG) (BU) (BU) (AG) (BU) (AG) (BU) (AG)
                 (AG) (BU) (BU) (AG) (BU) (AG) (AG) (BU) (BU) (AG)
                 (BU) (AG) (BU) (AG) (BU) (AG) (BU) (AG)
 The electronic state of the initial guess is 1-AG.
 Integral accuracy reduced to 1.0D-05 until final iterations.
 Initial convergence to 1.0D-05 achieved.  Increase integral accuracy.
 SCF Done:  E(RHF) =  -994.023237681     A.U. after   16 cycles
            NFock= 16  Conv=0.83D-08     -V/T= 2.0012
 ExpMin= 1.22D-01 ExpMax= 6.67D+03 ExpMxC= 2.28D+02 IAcc=3 IRadAn=         5 AccDes= 0.00D+00
 HarFok:  IExCor=  205 AccDes= 0.00D+00 IRadAn=         5 IDoV=-2 UseB2=F ITyADJ=14
 ICtDFT= 12500011 ScaDFX=  1.000000  1.000000  1.000000  1.000000
 GSVD:  LWork=        -884 too small for GESVD, short by        3770 words or        3770 for optimal perf.
 NROrb=    418 NOA=    60 NOB=    60 NVA=   358 NVB=   358

 **** Warning!!: The largest alpha MO coefficient is  0.15187173D+02

 Estimated scratch disk usage=  2571271640 words.
 Actual    scratch disk usage=  1937265112 words.
 (rs|ai) integrals will be sorted in core.
 ANorm=    0.1521522863D+01
 E2 =    -0.3359614242D+01 EUMP2 =    -0.99738285192356D+03

 **********************************************************************

            Population analysis using the SCF Density.

 **********************************************************************

 Orbital symmetries:
       Occupied  (AG) (BU) (AG) (BU) (BU) (AG) (AG) (BU) (AG) (BU)
                 (AG) (BU) (AG) (BU) (AG) (BU) (BU) (AG) (AG) (BU)
                 (AG) (BU) (BU) (AG) (AG) (BU) (AG) (BU) (AG) (BU)
                 (AG) (BU) (BU) (AG) (AG) (BU) (BU) (AG) (AG) (BU)
                 (BU) (AG) (AG) (BU) (AG) (BU) (AG) (BU) (BU) (AG)
                 (AG) (BU) (AG) (BU) (BU) (AG) (BU) (AG) (BU) (AG)
                 (AG) (AG) (BU) (BU) (AU) (AG) (BU) (BG) (BU) (AG)
                 (AU) (AG) (BU) (AG) (BU) (BG) (AG) (AU) (BG) (BG)
                 (AU) (AU) (BG) (BG) (AU) (AU)
       Virtual   (BG) (BG) (AU) (AU) (BG) (BG) (AU) (BU) (AG) (BU)
                 (AG) (AG) (AU) (BU) (BU) (AG) (AG) (BU) (BG) (BU)
                 (AG) (AG) (BU) (AU) (BU) (BG) (AG) (BU) (AG) (AG)
                 (BU) (AU) (AG) (BG) (BU) (BU) (AG) (BU) (AG) (AG)
                 (BU) (AG) (BU) (BU) (BU) (AG) (AG) (BU) (AG) (BU)
                 (BU) (BU) (AG) (BU) (AU) (AG) (BU) (BG) (AG) (AG)
                 (AG) (AU) (BU) (BU) (BG) (AU) (BG) (AG) (BU) (AG)
                 (AG) (BU) (BG) (AU) (BU) (BU) (AG) (AG) (BU) (AG)
                 (AU) (AG) (BU) (AG) (BG) (BU) (AG) (BU) (AU) (BG)
                 (AG) (AG) (BU) (AU) (BG) (AU) (BG) (BU) (AU) (BU)
                 (BG) (AG) (AG) (BU) (AU) (AG) (BU) (AU) (BG) (AG)
                 (AG) (BU) (BU) (BG) (BU) (AG) (AG) (AU) (BU) (BG)
                 (AG) (BU) (BG) (BG) (AU) (AU) (BU) (AG) (BU) (AU)
                 (BG) (AG) (BU) (AG) (AG) (BU) (AG) (BG) (BU) (AU)
                 (AG) (BU) (AG) (BU) (BU) (AU) (BG) (BU) (AG) (AU)
                 (BG) (AG) (BG) (BU) (AU) (AG) (AU) (BU) (BG) (AG)
                 (BG) (BU) (AG) (AU) (AU) (AG) (BU) (BG) (AG) (BU)
                 (BG) (AU) (AG) (BU) (AU) (AG) (BU) (AG) (BU) (AG)
                 (BU) (AG) (BU) (AG) (BU) (AU) (AG) (BG) (BU) (BU)
                 (AG) (AU) (BU) (BG) (AG) (BG) (AG) (AU) (BU) (BG)
                 (BU) (AG) (AU) (AG) (AG) (BU) (BG) (AU) (BG) (BU)
                 (AG) (BU) (AU) (BG) (AG) (BU) (AG) (AG) (BU) (BU)
                 (BG) (AG) (BU) (AU) (AG) (BU) (AU) (AG) (BG) (BG)
                 (BU) (AG) (AU) (BU) (BG) (AU) (AG) (AG) (BU) (BG)
                 (AG) (BU) (BU) (AU) (AG) (BU) (AU) (AG) (BU) (BG)
                 (AG) (BG) (BU) (AU) (AG) (BU) (BU) (AG) (BG) (AU)
                 (BU) (AG) (BG) (BU) (AG) (AU) (AG) (AG) (BU) (BU)
                 (AU) (BU) (AG) (AG) (BG) (AU) (BU) (AG) (AG) (BG)
                 (BU) (BU) (AG) (AG) (BU) (BG) (AU) (AG) (BU) (AU)
                 (BU) (AG) (BU) (BU) (BG) (AG) (AU) (BG) (AG) (BU)
                 (BU) (AG) (BU) (AG) (AU) (BG) (BU) (AG) (BU) (AG)
                 (BU) (AG) (AU) (BG) (BU) (AG) (BU) (AU) (BG) (AG)
                 (BU) (AG) (BU) (AG) (BU) (AG) (BU) (AG) (BU) (AG)
                 (AG) (BU) (AG) (BU) (AG) (BU) (AG) (BU) (BU) (AG)
                 (BU) (AG) (BU) (AG) (BU) (AG) (BU) (AG) (BU) (AG)
                 (AG) (BU) (BU) (AG) (BU) (AG) (BU) (AG)
 The electronic state is 1-AG.
 Alpha  occ. eigenvalues --  -11.25735 -11.25735 -11.25497 -11.25497 -11.25383
 Alpha  occ. eigenvalues --  -11.25383 -11.25263 -11.25179 -11.25179 -11.25172
 Alpha  occ. eigenvalues --  -11.24700 -11.24700 -11.24693 -11.24692 -11.24675
 Alpha  occ. eigenvalues --  -11.24674 -11.24597 -11.24597 -11.24555 -11.24555
 Alpha  occ. eigenvalues --  -11.24549 -11.24549 -11.24464 -11.24464 -11.24401
 Alpha  occ. eigenvalues --  -11.24401  -1.19631  -1.18170  -1.15801  -1.12752
 Alpha  occ. eigenvalues --   -1.09906  -1.08007  -1.05791  -1.05178  -1.02359
 Alpha  occ. eigenvalues --   -1.01436  -0.99542  -0.98002  -0.95502  -0.89324
 Alpha  occ. eigenvalues --   -0.86445  -0.84715  -0.83811  -0.83460  -0.80700
 Alpha  occ. eigenvalues --   -0.79656  -0.77974  -0.72831  -0.71175  -0.70835
 Alpha  occ. eigenvalues --   -0.69064  -0.67407  -0.67320  -0.65243  -0.63488
 Alpha  occ. eigenvalues --   -0.62414  -0.61235  -0.60817  -0.59950  -0.59759
 Alpha  occ. eigenvalues --   -0.58916  -0.58525  -0.58104  -0.56839  -0.55707
 Alpha  occ. eigenvalues --   -0.55483  -0.54971  -0.53792  -0.53038  -0.51813
 Alpha  occ. eigenvalues --   -0.50712  -0.50490  -0.49266  -0.47688  -0.47580
 Alpha  occ. eigenvalues --   -0.46820  -0.46346  -0.43242  -0.41934  -0.38442
 Alpha  occ. eigenvalues --   -0.37655  -0.33870  -0.32694  -0.30110  -0.27892
 Alpha  occ. eigenvalues --   -0.24468
 Alpha virt. eigenvalues --    0.03829   0.07550   0.10237   0.11853   0.13098
 Alpha virt. eigenvalues --    0.17535   0.17726   0.17831   0.18427   0.18505
 Alpha virt. eigenvalues --    0.19292   0.19947   0.21197   0.21204   0.21644
 Alpha virt. eigenvalues --    0.22804   0.23629   0.24452   0.25270   0.25372
 Alpha virt. eigenvalues --    0.26790   0.28012   0.29050   0.29855   0.32691
 Alpha virt. eigenvalues --    0.35278   0.35460   0.36730   0.38750   0.40687
 Alpha virt. eigenvalues --    0.41208   0.41424   0.42502   0.42950   0.43041
 Alpha virt. eigenvalues --    0.43610   0.44933   0.45689   0.45896   0.46753
 Alpha virt. eigenvalues --    0.47188   0.48129   0.49433   0.51378   0.52490
 Alpha virt. eigenvalues --    0.52971   0.55615   0.57202   0.58475   0.59302
 Alpha virt. eigenvalues --    0.62896   0.63703   0.64025   0.65210   0.65288
 Alpha virt. eigenvalues --    0.65379   0.65458   0.66313   0.66314   0.67846
 Alpha virt. eigenvalues --    0.68091   0.68130   0.68345   0.68657   0.68725
 Alpha virt. eigenvalues --    0.69443   0.69907   0.69966   0.70975   0.71226
 Alpha virt. eigenvalues --    0.71582   0.71999   0.72628   0.72668   0.72754
 Alpha virt. eigenvalues --    0.73281   0.73295   0.74191   0.74285   0.74602
 Alpha virt. eigenvalues --    0.74743   0.75116   0.75263   0.75961   0.76236
 Alpha virt. eigenvalues --    0.76255   0.77251   0.77444   0.77707   0.77725
 Alpha virt. eigenvalues --    0.78010   0.78969   0.79210   0.79939   0.80314
 Alpha virt. eigenvalues --    0.81750   0.83058   0.83059   0.85625   0.85738
 Alpha virt. eigenvalues --    0.86439   0.86675   0.87280   0.88496   0.89067
 Alpha virt. eigenvalues --    0.90069   0.90520   0.90604   0.90998   0.91306
 Alpha virt. eigenvalues --    0.92114   0.92492   0.93338   0.93783   0.94841
 Alpha virt. eigenvalues --    0.95021   0.95698   0.96976   0.97599   1.00304
 Alpha virt. eigenvalues --    1.00426   1.00852   1.01625   1.02874   1.03345
 Alpha virt. eigenvalues --    1.05156   1.08131   1.08454   1.09448   1.09574
 Alpha virt. eigenvalues --    1.10528   1.11094   1.11359   1.11473   1.12855
 Alpha virt. eigenvalues --    1.13078   1.13443   1.14227   1.14806   1.15119
 Alpha virt. eigenvalues --    1.15378   1.15949   1.15960   1.16911   1.17446
 Alpha virt. eigenvalues --    1.17785   1.18008   1.18836   1.19252   1.20404
 Alpha virt. eigenvalues --    1.20721   1.21003   1.21133   1.22592   1.22624
 Alpha virt. eigenvalues --    1.23430   1.24097   1.24347   1.25401   1.25444
 Alpha virt. eigenvalues --    1.25778   1.26738   1.26983   1.27322   1.28732
 Alpha virt. eigenvalues --    1.30383   1.30734   1.31435   1.31828   1.32566
 Alpha virt. eigenvalues --    1.32663   1.33130   1.33761   1.33866   1.35444
 Alpha virt. eigenvalues --    1.36057   1.37803   1.38890   1.41435   1.41475
 Alpha virt. eigenvalues --    1.46181   1.51773   1.54174   1.55302   1.57776
 Alpha virt. eigenvalues --    1.58118   1.59499   1.60048   1.60437   1.61166
 Alpha virt. eigenvalues --    1.62437   1.63792   1.64052   1.64559   1.64659
 Alpha virt. eigenvalues --    1.64985   1.65494   1.66836   1.68273   1.68570
 Alpha virt. eigenvalues --    1.70317   1.70651   1.71282   1.71619   1.72394
 Alpha virt. eigenvalues --    1.72755   1.73933   1.74521   1.74553   1.75249
 Alpha virt. eigenvalues --    1.75371   1.77662   1.77897   1.79067   1.80817
 Alpha virt. eigenvalues --    1.81789   1.83184   1.83273   1.83780   1.84622
 Alpha virt. eigenvalues --    1.86008   1.86566   1.87539   1.88841   1.88972
 Alpha virt. eigenvalues --    1.89273   1.90279   1.90356   1.90671   1.91134
 Alpha virt. eigenvalues --    1.91272   1.91440   1.91639   1.92020   1.93332
 Alpha virt. eigenvalues --    1.93459   1.93901   1.94763   1.95467   1.96096
 Alpha virt. eigenvalues --    1.96828   1.96962   1.98303   1.98388   2.00013
 Alpha virt. eigenvalues --    2.00366   2.01246   2.01549   2.02623   2.03640
 Alpha virt. eigenvalues --    2.04145   2.04319   2.04706   2.04804   2.05667
 Alpha virt. eigenvalues --    2.06678   2.06777   2.07026   2.07815   2.09772
 Alpha virt. eigenvalues --    2.09954   2.10552   2.10842   2.11566   2.11658
 Alpha virt. eigenvalues --    2.13305   2.14242   2.16052   2.16158   2.16845
 Alpha virt. eigenvalues --    2.17234   2.17621   2.17646   2.17862   2.18917
 Alpha virt. eigenvalues --    2.19261   2.19776   2.20397   2.22393   2.23439
 Alpha virt. eigenvalues --    2.24682   2.25414   2.26158   2.26824   2.27403
 Alpha virt. eigenvalues --    2.27964   2.30189   2.31877   2.32106   2.32825
 Alpha virt. eigenvalues --    2.33165   2.33438   2.34632   2.36490   2.36900
 Alpha virt. eigenvalues --    2.37636   2.39414   2.39736   2.43806   2.45050
 Alpha virt. eigenvalues --    2.46251   2.48069   2.48254   2.48604   2.49041
 Alpha virt. eigenvalues --    2.50216   2.52450   2.54127   2.55135   2.56144
 Alpha virt. eigenvalues --    2.59688   2.60596   2.60753   2.61964   2.62798
 Alpha virt. eigenvalues --    2.63429   2.65087   2.69029   2.69543   2.71430
 Alpha virt. eigenvalues --    2.71566   2.72621   2.73693   2.76108   2.77208
 Alpha virt. eigenvalues --    2.80806   2.80910   2.82192   2.82304   2.90250
 Alpha virt. eigenvalues --    2.91348   2.93920   2.94922   2.97256   2.98875
 Alpha virt. eigenvalues --    3.01109   3.02066   3.03245   3.04370   3.04706
 Alpha virt. eigenvalues --    3.06335   3.07296   3.11461   3.11646   3.15196
 Alpha virt. eigenvalues --    3.16171   3.20413   3.21859   3.22319   3.24369
 Alpha virt. eigenvalues --    3.32530   3.32579   3.59009   3.73536   3.75570
 Alpha virt. eigenvalues --    3.77775   3.93192   3.95458
          Condensed to atoms (all electrons):
 Mulliken charges:
               1
     1  C   -0.010539
     2  C    0.006091
     3  C   -0.029310
     4  C   -0.032333
     5  C   -0.100968
     6  C    0.025514
     7  C    0.032046
     8  C    0.035250
     9  C   -0.093313
    10  C    0.080224
    11  C   -0.077366
    12  C    0.038621
    13  C   -0.032774
    14  C   -0.093313
    15  C    0.035250
    16  C    0.032046
    17  C   -0.100968
    18  C    0.025514
    19  C   -0.010539
    20  C    0.006091
    21  C   -0.029310
    22  C   -0.032333
    23  C    0.080224
    24  C   -0.077366
    25  C    0.038621
    26  C   -0.032774
    27  H    0.029641
    28  H    0.027424
    29  H    0.024310
    30  H    0.018871
    31  H    0.019637
    32  H    0.016870
    33  H    0.009511
    34  H    0.012593
    35  H    0.016870
    36  H    0.019637
    37  H    0.018871
    38  H    0.029641
    39  H    0.027424
    40  H    0.024310
    41  H    0.009511
    42  H    0.012593
 Sum of Mulliken charges =  -0.00000
 Mulliken charges with hydrogens summed into heavy atoms:
               1
     1  C    0.019101
     2  C    0.033514
     3  C   -0.005000
     4  C   -0.032333
     5  C   -0.100968
     6  C    0.044385
     7  C    0.051683
     8  C    0.052121
     9  C   -0.093313
    10  C    0.089735
    11  C   -0.077366
    12  C    0.051215
    13  C   -0.032774
    14  C   -0.093313
    15  C    0.052121
    16  C    0.051683
    17  C   -0.100968
    18  C    0.044385
    19  C    0.019101
    20  C    0.033514
    21  C   -0.005000
    22  C   -0.032333
    23  C    0.089735
    24  C   -0.077366
    25  C    0.051215
    26  C   -0.032774
 Electronic spatial extent (au):  <R**2>=          12840.7193
 Charge=             -0.0000 electrons
 Dipole moment (field-independent basis, Debye):
    X=             -0.0000    Y=              0.0000    Z=              0.0000  Tot=              0.0000
 Unable to Open any file for archive entry.
 1\1\GINC-NODE01\SP\RMP2-FC\CC-pVDZ\C26H16\XUHJ\11-Oct-2024\0\\#T MP2/c
 c-pVDZ symm=veryloose\\c1ccc2c(c1)ccc1cc3cc4c(ccc5ccccc54)cc3cc12\\0,1
 \C,0,0.898043,6.784103,0.\C,0,1.950759,5.85266,0.\C,0,1.679549,4.49046
 9,0.\C,0,0.355207,4.001243,0.\C,0,-0.708372,4.950489,0.\C,0,-0.41275,6
 .331476,0.\C,0,-2.077736,4.493549,0.\C,0,-2.383207,3.170226,0.\C,0,-1.
 352598,2.161853,0.\C,0,-1.679549,0.808766,0.\C,0,-0.692505,-0.19998,0.
 \C,0,-1.012647,-1.577659,0.\C,0,-0.037798,-2.569489,0.\C,0,1.352598,-2
 .161853,0.\C,0,2.383207,-3.170226,0.\C,0,2.077736,-4.493549,0.\C,0,0.7
 08372,-4.950489,0.\C,0,0.41275,-6.331476,0.\C,0,-0.898043,-6.784103,0.
 \C,0,-1.950759,-5.85266,0.\C,0,-1.679549,-4.490469,0.\C,0,-0.355207,-4
 .001243,0.\C,0,1.679549,-0.808766,0.\C,0,0.692505,0.19998,0.\C,0,1.012
 647,1.577659,0.\C,0,0.037798,2.569489,0.\H,0,1.111589,7.856927,0.\H,0,
 2.988614,6.198432,0.\H,0,2.517984,3.79164,0.\H,0,-1.242687,7.044989,0.
 \H,0,-2.871671,5.246602,0.\H,0,-3.426295,2.83967,0.\H,0,-2.734668,0.51
 7147,0.\H,0,-2.071365,-1.843998,0.\H,0,3.426295,-2.83967,0.\H,0,2.8716
 71,-5.246602,0.\H,0,1.242687,-7.044989,0.\H,0,-1.111589,-7.856927,0.\H
 ,0,-2.988614,-6.198432,0.\H,0,-2.517984,-3.79164,0.\H,0,2.734668,-0.51
 7147,0.\H,0,2.071365,1.843998,0.\\Version=ES64L-G16RevC.01\State=1-AG\
 HF=-994.0232377\MP2=-997.3828519\RMSD=8.261e-09\PG=C02H [SGH(C26H16)]\
 \@
 The archive entry for this job was punched.


 WHEN A MATHEMATICIAN ENGAGED IN INVESTIGATING
 PHYSICAL ACTIONS AND RESULTS HAS ARRIVED AT HIS
 CONCLUSIONS, MAY THEY NOT BE EXPRESSED IN COMMON
 LANGUAGE AS FULLY, CLEARLY, AND DEFINITELY AS IN
 MATHEMATICAL FORMULAE?
           - LETTER FROM M. FARADAY TO J.C. MAXWELL, 1857.
 Job cpu time:       0 days  0 hours 10 minutes  4.1 seconds.
 Elapsed time:       0 days  0 hours  1 minutes 15.6 seconds.
 File lengths (MBytes):  RWF=  14894 Int=      0 D2E=      0 Chk=     14 Scr=      1
 Normal termination of Gaussian 16 at Fri Oct 11 15:44:18 2024.
