 Entering Gaussian System, Link 0=g16
 Initial command:
 /opt/g16/l1.exe "/tmp/Gau-2553661.inp" -scrdir="/tmp/"
 Entering Link 1 = /opt/g16/l1.exe PID=   2553663.
  
 Copyright (c) 1988-2019, Gaussian, Inc.  All Rights Reserved.
  
 This is part of the Gaussian(R) 16 program.  It is based on
 the Gaussian(R) 09 system (copyright 2009, Gaussian, Inc.),
 the Gaussian(R) 03 system (copyright 2003, Gaussian, Inc.),
 the Gaussian(R) 98 system (copyright 1998, Gaussian, Inc.),
 the Gaussian(R) 94 system (copyright 1995, Gaussian, Inc.),
 the Gaussian 92(TM) system (copyright 1992, Gaussian, Inc.),
 the Gaussian 90(TM) system (copyright 1990, Gaussian, Inc.),
 the Gaussian 88(TM) system (copyright 1988, Gaussian, Inc.),
 the Gaussian 86(TM) system (copyright 1986, Carnegie Mellon
 University), and the Gaussian 82(TM) system (copyright 1983,
 Carnegie Mellon University). Gaussian is a federally registered
 trademark of Gaussian, Inc.
  
 This software contains proprietary and confidential information,
 including trade secrets, belonging to Gaussian, Inc.
  
 This software is provided under written license and may be
 used, copied, transmitted, or stored only in accord with that
 written license.
  
 The following legend is applicable only to US Government
 contracts under FAR:
  
                    RESTRICTED RIGHTS LEGEND
  
 Use, reproduction and disclosure by the US Government is
 subject to restrictions as set forth in subparagraphs (a)
 and (c) of the Commercial Computer Software - Restricted
 Rights clause in FAR 52.227-19.
  
 Gaussian, Inc.
 340 Quinnipiac St., Bldg. 40, Wallingford CT 06492
  
  
 ---------------------------------------------------------------
 Warning -- This program may not be used in any manner that
 competes with the business of Gaussian, Inc. or will provide
 assistance to any competitor of Gaussian, Inc.  The licensee
 of this program is prohibited from giving any competitor of
 Gaussian, Inc. access to this program.  By using this program,
 the user acknowledges that Gaussian, Inc. is engaged in the
 business of creating and licensing software in the field of
 computational chemistry and represents and warrants to the
 licensee that it is not a competitor of Gaussian, Inc. and that
 it will not use this program in any manner prohibited above.
 ---------------------------------------------------------------
  

 Cite this work as:
 Gaussian 16, Revision C.01,
 M. J. Frisch, G. W. Trucks, H. B. Schlegel, G. E. Scuseria, 
 M. A. Robb, J. R. Cheeseman, G. Scalmani, V. Barone, 
 G. A. Petersson, H. Nakatsuji, X. Li, M. Caricato, A. V. Marenich, 
 J. Bloino, B. G. Janesko, R. Gomperts, B. Mennucci, H. P. Hratchian, 
 J. V. Ortiz, A. F. Izmaylov, J. L. Sonnenberg, D. Williams-Young, 
 F. Ding, F. Lipparini, F. Egidi, J. Goings, B. Peng, A. Petrone, 
 T. Henderson, D. Ranasinghe, V. G. Zakrzewski, J. Gao, N. Rega, 
 G. Zheng, W. Liang, M. Hada, M. Ehara, K. Toyota, R. Fukuda, 
 J. Hasegawa, M. Ishida, T. Nakajima, Y. Honda, O. Kitao, H. Nakai, 
 T. Vreven, K. Throssell, J. A. Montgomery, Jr., J. E. Peralta, 
 F. Ogliaro, M. J. Bearpark, J. J. Heyd, E. N. Brothers, K. N. Kudin, 
 V. N. Staroverov, T. A. Keith, R. Kobayashi, J. Normand, 
 K. Raghavachari, A. P. Rendell, J. C. Burant, S. S. Iyengar, 
 J. Tomasi, M. Cossi, J. M. Millam, M. Klene, C. Adamo, R. Cammi, 
 J. W. Ochterski, R. L. Martin, K. Morokuma, O. Farkas, 
 J. B. Foresman, and D. J. Fox, Gaussian, Inc., Wallingford CT, 2019.
 
 ******************************************
 Gaussian 16:  ES64L-G16RevC.01  3-Jul-2019
                11-Oct-2024 
 ******************************************
 %nprocshared=8
 Will use up to    8 processors via shared memory.
 %mem=10400MB
 -----------------------------
 #T MP2/cc-pVDZ symm=veryloose
 -----------------------------
 ----------------------------------------
 c1ccc2cc3cc4c(ccc5cc6ccccc6cc54)cc3cc2c1
 ----------------------------------------
 Symbolic Z-matrix:
 Charge =  0 Multiplicity = 1
 C                     4.44977   5.40013   0. 
 C                     3.14607   5.98514   0. 
 C                     2.02792   5.1901    0. 
 C                     2.13784   3.76237   0. 
 C                     1.01498   2.92632   0. 
 C                     1.13464   1.5261    0. 
 C                     0.        0.67048   0. 
 C                     0.10504  -0.71009   0. 
 C                     1.43303  -1.29734   0. 
 C                     1.57016  -2.73692   0. 
 C                     0.48896  -3.55448   0. 
 C                    -0.8599   -3.03042   0. 
 C                    -1.95415  -3.89018   0. 
 C                    -3.28178  -3.41292   0. 
 C                    -4.4123   -4.27981   0. 
 C                    -5.69183  -3.76949   0. 
 C                    -5.90382  -2.36385   0. 
 C                    -4.83157  -1.49887   0. 
 C                    -3.49491  -1.99214   0. 
 C                    -2.37493  -1.12994   0. 
 C                    -1.06713  -1.60229   0. 
 C                     2.55252  -0.48009   0. 
 C                     2.45486   0.93467   0. 
 C                     3.58164   1.77463   0. 
 C                     3.45993   3.16905   0. 
 C                     4.59952   4.0364    0. 
 H                     5.33023   6.04947   0. 
 H                     3.04571   7.07452   0. 
 H                     1.02829   5.6357    0. 
 H                     0.01625   3.37475   0. 
 H                    -0.98114   1.14965   0. 
 H                     2.58181  -3.15383   0. 
 H                     0.61489  -4.6414    0. 
 H                    -1.78042  -4.97101   0. 
 H                    -4.245    -5.36139   0. 
 H                    -6.55221  -4.44522   0. 
 H                    -6.92512  -1.97178   0. 
 H                    -4.9919   -0.41611   0. 
 H                    -2.57224  -0.0559    0. 
 H                     3.54659  -0.93824   0. 
 H                     4.57985   1.32534   0. 
 H                     5.597     3.58603   0. 
 
                    Distance matrix (angstroms):
                    1          2          3          4          5
     1  C    0.000000
     2  C    1.428934   0.000000
     3  C    2.430934   1.371981   0.000000
     4  C    2.833245   2.440741   1.431957   0.000000
     5  C    4.232905   3.727987   2.480071   1.399923   0.000000
     6  C    5.098850   4.891720   3.771329   2.450989   1.405330
     7  C    6.493851   6.176034   4.953738   3.759014   2.473669
     8  C    7.497430   7.353496   6.205622   4.912755   3.748530
     9  C    7.345534   7.481243   6.514664   5.108567   4.244302
    10  C    8.631561   8.863286   7.940234   6.524040   5.690393
    11  C    9.791481   9.902755   8.878974   7.500343   6.502117
    12  C    9.963272   9.865500   8.713010   7.424854   6.244836
    13  C   11.283618  11.114590   9.915061   8.677896   7.435081
    14  C   11.723770  11.385992  10.109650   8.992059   7.658212
    15  C   13.123928  12.747473  11.452323  10.372124   9.021292
    16  C   13.672379  13.162873  11.826618  10.864282   9.477090
    17  C   12.941263  12.312847  10.953303  10.109348   8.709524
    18  C   11.564579  10.938608   9.580972   8.732316   7.332430
    19  C   10.851899  10.379773   9.060155   8.052475   6.673116
    20  C    9.445546   9.005873   7.702471   6.655808   5.286281
    21  C    8.914600   8.678717   7.464313   6.249114   4.984328
    22  C    6.178717   6.492414   5.694408   4.262679   3.737333
    23  C    4.890815   5.097553   4.276803   2.845424   2.457632
    24  C    3.727992   4.232976   3.752265   2.456761   2.813204
    25  C    2.440801   2.833525   2.476958   1.449127   2.456970
    26  C    1.371933   2.431069   2.818537   2.476887   3.752490
    27  H    1.094011   2.185108   3.412295   3.927112   5.326861
    28  H    2.185167   1.093996   2.141705   3.434318   4.618590
    29  H    3.429581   2.146421   1.094453   2.177258   2.709407
    30  H    4.874243   4.075524   2.709674   2.156706   1.094783
    31  H    6.896474   6.357342   5.037829   4.068702   2.672277
    32  H    8.755549   9.156375   8.362303   6.930442   6.278795
    33  H   10.748894  10.923838   9.932533   8.540657   7.578296
    34  H   12.098587  12.012804  10.851345   9.572079   8.377478
    35  H   13.835074  13.541475  12.275322  11.134792   9.815985
    36  H   14.763959  14.242507  12.901866  11.953305  10.564187
    37  H   13.554819  12.835163  11.465145  10.724630   9.329342
    38  H   11.089351  10.353863   8.983735   8.263948   6.874188
    39  H    8.892524   8.318251   6.977258   6.063341   4.664962
    40  H    6.402403   6.934957   6.313715   4.907176   4.619947
    41  H    4.076872   4.875393   4.631280   3.450009   3.907869
    42  H    2.146413   3.429683   3.912967   3.463648   4.629260
                    6          7          8          9         10
     6  C    0.000000
     7  C    1.421085   0.000000
     8  C    2.461825   1.384553   0.000000
     9  C    2.839161   2.434311   1.452039   0.000000
    10  C    4.285208   3.751766   2.500924   1.446098   0.000000
    11  C    5.121442   4.253157   2.870187   2.446619   1.355499
    12  C    4.973933   3.799481   2.512977   2.874210   2.447713
    13  C    6.235111   4.961679   3.788566   4.265651   3.708196
    14  C    6.625604   5.238723   4.333113   5.167697   4.898798
    15  C    8.029756   6.631265   5.757538   6.562236   6.178205
    16  C    8.639666   7.218739   6.554664   7.541558   7.335024
    17  C    8.041863   6.637940   6.232283   7.413960   7.483280
    18  C    6.689248   5.296239   4.999234   6.267844   6.520347
    19  C    5.814699   4.393627   3.821431   4.976682   5.119532
    20  C    4.401314   2.980231   2.515259   3.811637   4.259824
    21  C    3.825516   2.510822   1.473096   2.518690   2.871006
    22  C    2.456659   2.799850   2.458263   1.386061   2.461371
    23  C    1.446647   2.469036   2.868251   2.454789   3.776673
    24  C    2.459592   3.747971   4.273237   3.748803   4.939653
    25  C    2.847158   4.267788   5.128645   4.904791   6.200948
    26  C    4.278674   5.699564   6.536779   6.202858   7.419901
    27  H    6.169601   7.572648   8.543670   8.316482   9.557141
    28  H    5.868321   7.091411   8.321516   8.525771   9.921776
    29  H    4.110977   5.070582   6.412595   6.944842   8.390136
    30  H    2.160625   2.704324   4.085803   4.882181   6.306121
    31  H    2.149003   1.091900   2.153700   3.437439   4.649147
    32  H    4.898578   4.614226   3.479408   2.183178   1.094194
    33  H    6.189361   5.347350   3.964239   3.442688   2.130627
    34  H    7.121089   5.915762   4.659443   4.880787   4.027093
    35  H    8.739444   7.375865   6.368471   6.982582   6.379953
    36  H    9.733663   8.312748   7.633492   8.583308   8.300066
    37  H    8.786054   7.412068   7.142477   8.385312   8.529658
    38  H    6.427018   5.108787   5.105410   6.485080   6.960368
    39  H    4.030344   2.672838   2.756050   4.193254   4.934302
    40  H    3.448260   3.894389   3.449102   2.143847   2.672364
    41  H    3.451060   4.626433   4.915982   4.096453   5.055712
    42  H    4.914875   6.310850   6.972676   6.417628   7.496347
                   11         12         13         14         15
    11  C    0.000000
    12  C    1.447089   0.000000
    13  C    2.466067   1.391606   0.000000
    14  C    3.773396   2.451899   1.410804   0.000000
    15  C    4.954638   3.765701   2.488835   1.424627   0.000000
    16  C    6.184529   4.888125   3.739626   2.436284   1.377543
    17  C    6.502712   5.087776   4.234332   2.824121   2.428072
    18  C    5.703830   4.256744   3.741383   2.462822   2.812373
    19  C    4.279272   2.832194   2.444685   1.436679   2.464753
    20  C    3.752372   2.430464   2.792128   2.456502   3.751340
    21  C    2.496495   1.443089   2.453821   2.860604   4.284768
    22  C    3.702725   4.260141   5.651441   6.529974   7.933887
    23  C    4.900733   5.168126   6.535937   7.197954   8.622563
    24  C    6.161499   6.543375   7.920542   8.603324  10.027922
    25  C    7.350682   7.556081   8.896346   9.421944  10.837781
    26  C    8.632389   8.930016  10.284999  10.844689  12.262633
    27  H   10.755178  10.989185  12.323104  12.794674  14.198977
    28  H   10.932182  10.833446  12.050856  12.248410  13.584646
    29  H    9.205990   8.869433   9.981844  10.022685  11.310050
    30  H    6.945337   6.464817   7.527394   7.546491   8.843321
    31  H    4.928497   4.181831   5.132897   5.109798   6.422763
    32  H    2.130850   3.443919   4.595336   5.869307   7.084160
    33  H    1.094193   2.184096   2.676624   4.085731   5.040177
    34  H    2.675189   2.147846   1.094706   2.163726   2.721129
    35  H    5.067078   4.110024   2.722580   2.173547   1.094443
    36  H    7.097290   5.865498   4.631440   3.429484   2.146297
    37  H    7.581128   6.156913   5.328297   3.918011   3.411928
    38  H    6.315793   4.889587   4.614877   3.450425   3.906935
    39  H    4.648768   3.432184   3.883775   3.431185   4.607297
    40  H    4.024148   4.877942   6.242757   7.262961   8.631911
    41  H    6.367731   6.968751   8.360308   9.179124  10.596055
    42  H    8.779462   9.244941  10.626077  11.305663  12.730176
                   16         17         18         19         20
    16  C    0.000000
    17  C    1.421533   0.000000
    18  C    2.428121   1.377649   0.000000
    19  C    2.825844   2.437417   1.424776   0.000000
    20  C    4.238991   3.738397   2.484192   1.413422   0.000000
    21  C    5.107305   4.896277   3.765862   2.458883   1.390486
    22  C    8.876342   8.663618   7.454044   6.233600   4.970119
    23  C    9.407316   8.985976   7.682070   6.630687   5.252567
    24  C   10.804371  10.348960   9.027619   8.016618   6.627007
    25  C   11.484688  10.876254   9.515173   8.660704   7.247546
    26  C   12.916801  12.299732  10.935479  10.092729   8.679516
    27  H   14.761364  14.035242  12.658584  11.939464  10.531547
    28  H   13.926128  13.006803  11.642787  11.179628   9.833434
    29  H   11.559303  10.585222   9.232549   8.868106   7.573355
    30  H    9.144525   8.244927   6.874122   6.413410   5.099997
    31  H    6.810913   6.047934   4.673381   4.023672   2.671925
    32  H    8.296510   8.522322   7.595865   6.186766   5.354010
    33  H    6.366706   6.905132   6.288048   4.889692   4.611880
    34  H    4.091794   4.878495   4.622266   3.437025   3.886808
    35  H    2.151154   3.425919   3.906810   3.451730   4.626265
    36  H    1.094014   2.180021   3.411977   3.919776   5.332988
    37  H    2.180082   1.093968   2.146292   3.430263   4.627407
    38  H    3.425651   2.150656   1.094564   2.173674   2.712577
    39  H    4.850003   4.052905   2.680805   2.144842   1.092009
    40  H    9.662519   9.557331   8.396898   7.119933   5.924620
    41  H   11.465803  11.113842   9.826039   8.729690   7.375456
    42  H   13.473724  12.948741  11.602209  10.666717   9.262396
                   21         22         23         24         25
    21  C    0.000000
    22  C    3.789620   0.000000
    23  C    4.340572   1.418119   0.000000
    24  C    5.745837   2.478474   1.405407   0.000000
    25  C    6.577232   3.760265   2.450029   1.399719   0.000000
    26  C    7.994107   4.958715   3.770984   2.480258   1.432115
    27  H    9.973753   7.095833   5.867626   4.618643   3.434366
    28  H    9.602210   7.570688   6.168218   5.326917   3.927377
    29  H    7.535199   6.302866   4.912721   4.628978   3.463707
    30  H    5.093588   4.614373   3.449758   3.907987   3.449820
    31  H    2.753284   3.891377   3.442720   4.605382   4.878637
    32  H    3.965106   2.673907   4.090469   5.028859   6.383569
    33  H    3.473533   4.590311   5.871798   7.068739   8.312486
    34  H    3.443408   6.240411   7.267363   8.617151   9.681003
    35  H    4.922363   8.368592   9.193931  10.591457  11.494969
    36  H    6.178052   9.930679  10.491447  11.890391  12.578557
    37  H    5.869625   9.594309   9.819949  11.154707  11.587813
    38  H    4.100099   7.544690   7.568276   8.849003   9.180784
    39  H    2.157932   5.142290   5.123769   6.420367   6.840137
    40  H    4.661262   1.094567   2.167869   2.713101   4.108207
    41  H    6.360771   2.714706   2.160604   1.094666   2.157194
    42  H    8.445666   5.079583   4.111297   2.709768   2.177362
                   26         27         28         29         30
    26  C    0.000000
    27  H    2.141591   0.000000
    28  H    3.412406   2.503953   0.000000
    29  H    3.912987   4.321799   2.477941   0.000000
    30  H    4.630781   5.949163   4.781829   2.477114   0.000000
    31  H    6.283079   7.990099   7.163766   4.915526   2.438412
    32  H    7.467972   9.604932  10.238868   8.925766   7.014592
    33  H    9.548901  11.684575  11.965438  10.285412   8.038476
    34  H   11.037980  13.115349  12.976372  10.972286   8.536963
    35  H   12.905188  14.896066  14.415484  12.196041   9.719998
    36  H   14.010672  15.853423  14.994145  12.613041  10.212571
    37  H   12.996749  14.646984  13.463019  11.005924   8.761735
    38  H   10.574503  12.179906  10.986927   8.536215   6.281096
    39  H    8.257187   9.986228   9.077681   6.734845   4.297638
    40  H    5.084854   7.211768   8.028404   7.039784   5.573616
    41  H    2.711132   4.783360   5.950352   5.585052   5.002652
    42  H    1.094433   2.477842   4.321875   5.007416   5.584741
                   31         32         33         34         35
    31  H    0.000000
    32  H    5.587003   0.000000
    33  H    6.006967   2.466094   0.000000
    34  H    6.172629   4.725584   2.417881   0.000000
    35  H    7.283297   7.174856   4.912931   2.495304   0.000000
    36  H    7.895531   9.224856   7.169788   4.800673   2.482461
    37  H    6.713733   9.580129   7.998663   5.955106   4.321167
    38  H    4.305552   8.053334   7.020630   5.573217   5.001369
    39  H    1.996240   6.013439   5.584323   4.978480   5.562939
    40  H    4.985944   2.416534   4.723158   6.681330   8.959519
    41  H    5.563765   4.904605   7.164000   8.949692  11.072047
    42  H    7.014828   7.383574   9.618319  11.298194  13.301171
                   36         37         38         39         40
    36  H    0.000000
    37  H    2.501389   0.000000
    38  H    4.320685   2.481423   0.000000
    39  H    5.925051   4.755848   2.446318   0.000000
    40  H   10.690397  10.522585   8.554436   6.182122   0.000000
    41  H   12.538824  11.968094   9.728875   7.284249   2.488260
    42  H   14.563797  13.700094  11.319973   8.944281   4.967219
                   41         42
    41  H    0.000000
    42  H    2.478977   0.000000
 Framework group  CS[SG(C26H16)]
 Deg. of freedom    81
                         Standard orientation:                         
 ---------------------------------------------------------------------
 Center     Atomic      Atomic             Coordinates (Angstroms)
 Number     Number       Type             X           Y           Z
 ---------------------------------------------------------------------
      1          6           0       -4.449768    5.400134    0.000000
      2          6           0       -3.146072    5.985138    0.000000
      3          6           0       -2.027924    5.190105    0.000000
      4          6           0       -2.137839    3.762373    0.000000
      5          6           0       -1.014983    2.926324    0.000000
      6          6           0       -1.134635    1.526097    0.000000
      7          6           0        0.000000    0.670476    0.000000
      8          6           0       -0.105041   -0.710087    0.000000
      9          6           0       -1.433029   -1.297340    0.000000
     10          6           0       -1.570155   -2.736922    0.000000
     11          6           0       -0.488963   -3.554481    0.000000
     12          6           0        0.859898   -3.030420    0.000000
     13          6           0        1.954149   -3.890177    0.000000
     14          6           0        3.281777   -3.412924    0.000000
     15          6           0        4.412296   -4.279809    0.000000
     16          6           0        5.691827   -3.769490    0.000000
     17          6           0        5.903820   -2.363853    0.000000
     18          6           0        4.831574   -1.498865    0.000000
     19          6           0        3.494913   -1.992143    0.000000
     20          6           0        2.374930   -1.129937    0.000000
     21          6           0        1.067132   -1.602288    0.000000
     22          6           0       -2.552521   -0.480087    0.000000
     23          6           0       -2.454861    0.934665    0.000000
     24          6           0       -3.581638    1.774631    0.000000
     25          6           0       -3.459934    3.169049    0.000000
     26          6           0       -4.599521    4.036399    0.000000
     27          1           0       -5.330233    6.049474    0.000000
     28          1           0       -3.045707    7.074520    0.000000
     29          1           0       -1.028287    5.635698    0.000000
     30          1           0       -0.016252    3.374751    0.000000
     31          1           0        0.981140    1.149653    0.000000
     32          1           0       -2.581809   -3.153834    0.000000
     33          1           0       -0.614893   -4.641403    0.000000
     34          1           0        1.780417   -4.971009    0.000000
     35          1           0        4.244995   -5.361389    0.000000
     36          1           0        6.552210   -4.445218    0.000000
     37          1           0        6.925116   -1.971782    0.000000
     38          1           0        4.991898   -0.416106    0.000000
     39          1           0        2.572244   -0.055902    0.000000
     40          1           0       -3.546588   -0.938244    0.000000
     41          1           0       -4.579851    1.325338    0.000000
     42          1           0       -5.596995    3.586034    0.000000
 ---------------------------------------------------------------------
 Rotational constants (GHZ):           0.5926338           0.0887327           0.0771773
   444 basis functions,   970 primitive gaussians,   470 cartesian basis functions
    86 alpha electrons       86 beta electrons
       nuclear repulsion energy      1926.2055124201 Hartrees.
 NAtoms=   42 NActive=   42 NUniq=   42 SFac= 1.00D+00 NAtFMM=   60 NAOKFM=F Big=F
 ExpMin= 1.22D-01 ExpMax= 6.67D+03 ExpMxC= 2.28D+02 IAcc=3 IRadAn=         5 AccDes= 0.00D+00
 Harris functional with IExCor=  205 and IRadAn=       5 diagonalized for initial guess.
 HarFok:  IExCor=  205 AccDes= 0.00D+00 IRadAn=         5 IDoV= 1 UseB2=F ITyADJ=14
 ICtDFT=  3500011 ScaDFX=  1.000000  1.000000  1.000000  1.000000
 FoFCou: FMM=F IPFlag=           0 FMFlag=      100000 FMFlg1=           0
         NFxFlg=           0 DoJE=T BraDBF=F KetDBF=T FulRan=T
         wScrn=  0.000000 ICntrl=       500 IOpCl=  0 I1Cent=   200000004 NGrid=           0
         NMat0=    1 NMatS0=      1 NMatT0=    0 NMatD0=    1 NMtDS0=    0 NMtDT0=    0
 Petite list used in FoFCou.
 Initial guess orbital symmetries:
       Occupied  (A') (A') (A') (A') (A') (A') (A') (A') (A') (A')
                 (A') (A') (A') (A') (A') (A') (A') (A') (A') (A')
                 (A') (A') (A') (A') (A') (A') (A') (A') (A') (A')
                 (A') (A') (A') (A') (A') (A') (A') (A') (A') (A')
                 (A') (A') (A') (A') (A') (A') (A') (A') (A') (A')
                 (A') (A') (A') (A') (A') (A') (A') (A') (A') (A')
                 (A') (A') (A') (A') (A') (A') (A") (A") (A') (A')
                 (A") (A') (A') (A') (A") (A') (A') (A") (A") (A")
                 (A") (A") (A") (A") (A") (A")
       Virtual   (A") (A") (A") (A") (A") (A") (A") (A") (A") (A")
                 (A') (A') (A') (A') (A") (A') (A') (A') (A") (A')
                 (A') (A') (A') (A') (A') (A") (A') (A') (A') (A')
                 (A') (A') (A') (A') (A') (A') (A') (A') (A') (A')
                 (A') (A') (A') (A') (A') (A') (A') (A') (A') (A')
                 (A') (A') (A') (A') (A') (A") (A') (A") (A') (A')
                 (A") (A') (A') (A") (A') (A') (A') (A") (A') (A')
                 (A') (A") (A') (A') (A") (A') (A') (A') (A') (A')
                 (A') (A") (A') (A') (A') (A") (A') (A') (A") (A")
                 (A') (A') (A") (A") (A') (A") (A") (A") (A") (A')
                 (A') (A") (A') (A') (A') (A') (A') (A') (A") (A')
                 (A") (A') (A') (A') (A") (A') (A") (A') (A') (A')
                 (A") (A") (A") (A") (A") (A") (A') (A') (A') (A")
                 (A') (A") (A') (A') (A') (A") (A') (A') (A") (A')
                 (A') (A') (A') (A") (A') (A") (A') (A') (A') (A")
                 (A") (A') (A") (A") (A") (A') (A") (A') (A") (A')
                 (A') (A") (A") (A') (A") (A") (A') (A') (A') (A")
                 (A') (A") (A') (A') (A') (A') (A') (A') (A') (A')
                 (A') (A') (A') (A') (A') (A") (A") (A') (A') (A')
                 (A") (A") (A") (A') (A") (A') (A') (A') (A') (A")
                 (A') (A') (A') (A") (A') (A') (A') (A') (A") (A')
                 (A") (A') (A") (A") (A') (A') (A") (A') (A') (A')
                 (A') (A') (A') (A') (A") (A') (A') (A') (A") (A')
                 (A') (A') (A') (A") (A') (A") (A") (A") (A") (A")
                 (A') (A") (A') (A") (A") (A') (A") (A') (A') (A')
                 (A") (A') (A') (A") (A') (A') (A') (A') (A") (A')
                 (A') (A") (A') (A') (A') (A") (A') (A') (A') (A")
                 (A") (A') (A") (A') (A') (A') (A") (A') (A') (A')
                 (A") (A') (A") (A') (A') (A') (A") (A') (A') (A")
                 (A') (A') (A') (A") (A") (A') (A') (A") (A') (A')
                 (A') (A') (A') (A") (A') (A") (A') (A') (A') (A')
                 (A') (A') (A') (A") (A') (A") (A') (A") (A') (A')
                 (A") (A') (A') (A') (A') (A') (A') (A') (A') (A')
                 (A') (A') (A') (A') (A') (A') (A') (A') (A') (A')
                 (A') (A') (A') (A') (A') (A') (A') (A') (A') (A')
                 (A') (A') (A') (A') (A') (A') (A') (A')
 The electronic state of the initial guess is 1-A'.
 Integral accuracy reduced to 1.0D-05 until final iterations.
 Initial convergence to 1.0D-05 achieved.  Increase integral accuracy.
 SCF Done:  E(RHF) =  -994.013550613     A.U. after   17 cycles
            NFock= 17  Conv=0.36D-08     -V/T= 2.0012
 ExpMin= 1.22D-01 ExpMax= 6.67D+03 ExpMxC= 2.28D+02 IAcc=3 IRadAn=         5 AccDes= 0.00D+00
 HarFok:  IExCor=  205 AccDes= 0.00D+00 IRadAn=         5 IDoV=-2 UseB2=F ITyADJ=14
 ICtDFT= 12500011 ScaDFX=  1.000000  1.000000  1.000000  1.000000
 GSVD:  LWork=        -884 too small for GESVD, short by        3770 words or        3770 for optimal perf.
 NROrb=    418 NOA=    60 NOB=    60 NVA=   358 NVB=   358

 **** Warning!!: The largest alpha MO coefficient is  0.16958758D+02

 Estimated scratch disk usage=  4838105352 words.
 Actual    scratch disk usage=  3826678536 words.
 ANorm=    0.1522510977D+01
 E2 =    -0.3360077385D+01 EUMP2 =    -0.99737362799802D+03

 **********************************************************************

            Population analysis using the SCF Density.

 **********************************************************************

 Orbital symmetries:
       Occupied  (A') (A') (A') (A') (A') (A') (A') (A') (A') (A')
                 (A') (A') (A') (A') (A') (A') (A') (A') (A') (A')
                 (A') (A') (A') (A') (A') (A') (A') (A') (A') (A')
                 (A') (A') (A') (A') (A') (A') (A') (A') (A') (A')
                 (A') (A') (A') (A') (A') (A') (A') (A') (A') (A')
                 (A') (A') (A') (A') (A') (A') (A') (A') (A') (A')
                 (A') (A') (A') (A') (A') (A") (A') (A') (A") (A')
                 (A") (A') (A') (A') (A') (A") (A') (A") (A") (A")
                 (A") (A") (A") (A") (A") (A")
       Virtual   (A") (A") (A") (A") (A") (A") (A') (A") (A') (A')
                 (A') (A') (A") (A') (A') (A') (A') (A") (A') (A')
                 (A') (A') (A') (A') (A") (A') (A') (A") (A') (A")
                 (A') (A') (A") (A') (A') (A') (A') (A') (A') (A')
                 (A') (A') (A') (A') (A') (A') (A') (A') (A') (A')
                 (A') (A') (A') (A') (A') (A") (A') (A') (A") (A')
                 (A") (A') (A') (A') (A") (A') (A") (A') (A') (A")
                 (A') (A") (A') (A') (A') (A") (A') (A') (A") (A')
                 (A') (A') (A') (A') (A') (A") (A') (A") (A') (A')
                 (A") (A') (A") (A') (A") (A") (A') (A") (A") (A')
                 (A') (A") (A') (A') (A") (A') (A") (A') (A') (A")
                 (A') (A') (A') (A') (A') (A") (A') (A') (A") (A")
                 (A') (A') (A") (A") (A") (A") (A") (A') (A') (A')
                 (A') (A") (A') (A') (A') (A') (A") (A') (A') (A')
                 (A") (A') (A') (A') (A") (A') (A") (A') (A') (A')
                 (A") (A') (A") (A") (A") (A') (A") (A') (A") (A')
                 (A') (A") (A") (A") (A') (A') (A') (A") (A") (A')
                 (A') (A') (A") (A') (A") (A') (A') (A') (A') (A')
                 (A') (A') (A') (A') (A') (A") (A') (A") (A') (A')
                 (A") (A') (A') (A") (A") (A") (A') (A') (A") (A')
                 (A') (A') (A") (A') (A') (A') (A') (A") (A") (A")
                 (A') (A') (A") (A") (A') (A') (A') (A') (A') (A')
                 (A") (A') (A') (A') (A") (A') (A') (A") (A") (A')
                 (A") (A') (A') (A") (A') (A") (A') (A") (A') (A')
                 (A") (A') (A") (A") (A') (A') (A') (A') (A") (A')
                 (A") (A') (A') (A') (A") (A') (A') (A') (A') (A")
                 (A") (A') (A') (A") (A') (A') (A') (A") (A') (A')
                 (A") (A') (A') (A") (A') (A') (A') (A") (A') (A')
                 (A") (A') (A") (A') (A') (A') (A") (A') (A") (A')
                 (A') (A') (A") (A') (A') (A") (A') (A") (A') (A')
                 (A') (A') (A") (A') (A") (A') (A') (A') (A') (A')
                 (A') (A') (A') (A") (A") (A') (A') (A") (A') (A")
                 (A') (A') (A') (A') (A') (A') (A') (A') (A') (A')
                 (A') (A') (A') (A') (A') (A') (A') (A') (A') (A')
                 (A') (A') (A') (A') (A') (A') (A') (A') (A') (A')
                 (A') (A') (A') (A') (A') (A') (A') (A')
 The electronic state is 1-A'.
 Alpha  occ. eigenvalues --  -11.25800 -11.25697 -11.25446 -11.25374 -11.25336
 Alpha  occ. eigenvalues --  -11.25312 -11.25237 -11.25220 -11.25187 -11.25090
 Alpha  occ. eigenvalues --  -11.24783 -11.24763 -11.24750 -11.24709 -11.24688
 Alpha  occ. eigenvalues --  -11.24686 -11.24681 -11.24650 -11.24646 -11.24644
 Alpha  occ. eigenvalues --  -11.24634 -11.24599 -11.24550 -11.24546 -11.24493
 Alpha  occ. eigenvalues --  -11.24493  -1.19601  -1.18152  -1.15877  -1.12897
 Alpha  occ. eigenvalues --   -1.09350  -1.07952  -1.06291  -1.04837  -1.03411
 Alpha  occ. eigenvalues --   -1.01158  -1.00133  -0.96964  -0.95437  -0.89385
 Alpha  occ. eigenvalues --   -0.87526  -0.84399  -0.83463  -0.82135  -0.81219
 Alpha  occ. eigenvalues --   -0.80294  -0.77686  -0.74051  -0.70899  -0.70550
 Alpha  occ. eigenvalues --   -0.68194  -0.68010  -0.67061  -0.64275  -0.63219
 Alpha  occ. eigenvalues --   -0.62815  -0.62276  -0.61375  -0.60429  -0.59160
 Alpha  occ. eigenvalues --   -0.58609  -0.58197  -0.57598  -0.57017  -0.56040
 Alpha  occ. eigenvalues --   -0.55667  -0.54650  -0.53800  -0.53785  -0.51335
 Alpha  occ. eigenvalues --   -0.50749  -0.50463  -0.48926  -0.48210  -0.47382
 Alpha  occ. eigenvalues --   -0.46798  -0.46494  -0.42827  -0.41500  -0.39992
 Alpha  occ. eigenvalues --   -0.37184  -0.35310  -0.31811  -0.30485  -0.26495
 Alpha  occ. eigenvalues --   -0.24281
 Alpha virt. eigenvalues --    0.03637   0.05971   0.10400   0.11589   0.15116
 Alpha virt. eigenvalues --    0.16877   0.17725   0.18447   0.18558   0.18645
 Alpha virt. eigenvalues --    0.19303   0.19614   0.21008   0.21056   0.21425
 Alpha virt. eigenvalues --    0.22903   0.23459   0.23830   0.24697   0.24847
 Alpha virt. eigenvalues --    0.26062   0.27104   0.29483   0.30526   0.30573
 Alpha virt. eigenvalues --    0.34412   0.35399   0.36244   0.39039   0.39428
 Alpha virt. eigenvalues --    0.40388   0.41683   0.42538   0.42917   0.43606
 Alpha virt. eigenvalues --    0.43782   0.44840   0.45801   0.46336   0.46906
 Alpha virt. eigenvalues --    0.47572   0.48786   0.49837   0.50601   0.51520
 Alpha virt. eigenvalues --    0.52109   0.53321   0.57177   0.58826   0.59561
 Alpha virt. eigenvalues --    0.62614   0.63371   0.64159   0.64570   0.65211
 Alpha virt. eigenvalues --    0.65220   0.65775   0.65916   0.66459   0.66914
 Alpha virt. eigenvalues --    0.67693   0.67808   0.68095   0.68530   0.68818
 Alpha virt. eigenvalues --    0.69296   0.69758   0.69899   0.70549   0.71071
 Alpha virt. eigenvalues --    0.71595   0.71638   0.71730   0.72590   0.72960
 Alpha virt. eigenvalues --    0.73155   0.73340   0.73574   0.74252   0.74259
 Alpha virt. eigenvalues --    0.74936   0.75199   0.75372   0.75919   0.76606
 Alpha virt. eigenvalues --    0.76640   0.77059   0.77065   0.77258   0.77676
 Alpha virt. eigenvalues --    0.78175   0.78862   0.79449   0.79872   0.80283
 Alpha virt. eigenvalues --    0.82468   0.82804   0.83348   0.84329   0.85954
 Alpha virt. eigenvalues --    0.86326   0.86709   0.87834   0.88204   0.89051
 Alpha virt. eigenvalues --    0.89072   0.89852   0.90486   0.90833   0.91225
 Alpha virt. eigenvalues --    0.91434   0.92856   0.93032   0.93787   0.94061
 Alpha virt. eigenvalues --    0.94227   0.96616   0.97313   0.98803   0.99299
 Alpha virt. eigenvalues --    0.99781   1.00259   1.00715   1.03165   1.03748
 Alpha virt. eigenvalues --    1.04803   1.07816   1.07908   1.08838   1.09091
 Alpha virt. eigenvalues --    1.10273   1.10866   1.11047   1.11622   1.11744
 Alpha virt. eigenvalues --    1.12764   1.12800   1.13194   1.13881   1.14063
 Alpha virt. eigenvalues --    1.14499   1.15030   1.15579   1.16964   1.18010
 Alpha virt. eigenvalues --    1.18190   1.18758   1.19067   1.19370   1.20080
 Alpha virt. eigenvalues --    1.20665   1.20969   1.21612   1.21702   1.22411
 Alpha virt. eigenvalues --    1.22480   1.22705   1.23101   1.24435   1.24977
 Alpha virt. eigenvalues --    1.25871   1.25874   1.28465   1.29126   1.29170
 Alpha virt. eigenvalues --    1.30033   1.30431   1.31004   1.31730   1.31983
 Alpha virt. eigenvalues --    1.32788   1.33468   1.34007   1.34032   1.35315
 Alpha virt. eigenvalues --    1.35485   1.35956   1.37939   1.40944   1.44475
 Alpha virt. eigenvalues --    1.46463   1.50609   1.53196   1.53516   1.53976
 Alpha virt. eigenvalues --    1.57888   1.60349   1.60565   1.60767   1.61636
 Alpha virt. eigenvalues --    1.62780   1.63336   1.63870   1.64421   1.65891
 Alpha virt. eigenvalues --    1.66169   1.66271   1.66362   1.67719   1.68298
 Alpha virt. eigenvalues --    1.69565   1.70048   1.70963   1.71108   1.72010
 Alpha virt. eigenvalues --    1.72674   1.73765   1.74270   1.74303   1.75143
 Alpha virt. eigenvalues --    1.75905   1.77067   1.77452   1.78928   1.79141
 Alpha virt. eigenvalues --    1.80510   1.81208   1.83042   1.83750   1.84814
 Alpha virt. eigenvalues --    1.85840   1.85953   1.87931   1.88211   1.88608
 Alpha virt. eigenvalues --    1.89163   1.90185   1.90704   1.90814   1.90909
 Alpha virt. eigenvalues --    1.91117   1.91487   1.91694   1.92898   1.93303
 Alpha virt. eigenvalues --    1.93532   1.93862   1.94505   1.96023   1.96662
 Alpha virt. eigenvalues --    1.96837   1.97212   1.97616   1.97964   1.98158
 Alpha virt. eigenvalues --    1.99164   1.99633   2.01593   2.02657   2.03183
 Alpha virt. eigenvalues --    2.03465   2.03553   2.05020   2.05173   2.05444
 Alpha virt. eigenvalues --    2.06137   2.06483   2.07732   2.08470   2.08914
 Alpha virt. eigenvalues --    2.09250   2.09667   2.10959   2.11381   2.11406
 Alpha virt. eigenvalues --    2.12190   2.14385   2.15386   2.15401   2.16104
 Alpha virt. eigenvalues --    2.16602   2.16647   2.17171   2.17184   2.18040
 Alpha virt. eigenvalues --    2.19076   2.20239   2.21480   2.23297   2.25036
 Alpha virt. eigenvalues --    2.25420   2.25900   2.26321   2.26695   2.27771
 Alpha virt. eigenvalues --    2.28000   2.30155   2.31529   2.31686   2.31929
 Alpha virt. eigenvalues --    2.32668   2.33541   2.35457   2.35614   2.36837
 Alpha virt. eigenvalues --    2.38342   2.40327   2.40561   2.43480   2.45965
 Alpha virt. eigenvalues --    2.46932   2.48658   2.50156   2.50182   2.51092
 Alpha virt. eigenvalues --    2.51482   2.53121   2.53375   2.54502   2.55515
 Alpha virt. eigenvalues --    2.56894   2.58364   2.59984   2.60548   2.61701
 Alpha virt. eigenvalues --    2.63103   2.65209   2.68643   2.69413   2.69682
 Alpha virt. eigenvalues --    2.71490   2.71572   2.75413   2.76534   2.77060
 Alpha virt. eigenvalues --    2.77524   2.78009   2.78635   2.88984   2.90618
 Alpha virt. eigenvalues --    2.93054   2.93234   2.93770   2.96059   2.97633
 Alpha virt. eigenvalues --    3.00612   3.01445   3.03697   3.04478   3.05583
 Alpha virt. eigenvalues --    3.06810   3.07992   3.09126   3.12703   3.14616
 Alpha virt. eigenvalues --    3.18433   3.19759   3.21063   3.23967   3.27833
 Alpha virt. eigenvalues --    3.29723   3.32381   3.59085   3.65229   3.76549
 Alpha virt. eigenvalues --    3.86312   3.90872   3.92850
          Condensed to atoms (all electrons):
 Mulliken charges:
               1
     1  C   -0.018434
     2  C   -0.019099
     3  C    0.025096
     4  C   -0.096318
     5  C    0.070194
     6  C   -0.073930
     7  C    0.038012
     8  C   -0.031379
     9  C   -0.089494
    10  C    0.036126
    11  C    0.034985
    12  C   -0.089819
    13  C    0.078532
    14  C   -0.095455
    15  C    0.022043
    16  C   -0.014679
    17  C   -0.017785
    18  C    0.019660
    19  C   -0.081762
    20  C    0.037211
    21  C   -0.029056
    22  C    0.080491
    23  C   -0.084727
    24  C    0.070707
    25  C   -0.093247
    26  C    0.025925
    27  H    0.031220
    28  H    0.031137
    29  H    0.017208
    30  H    0.009679
    31  H    0.012794
    32  H    0.017519
    33  H    0.017893
    34  H    0.011541
    35  H    0.016970
    36  H    0.031028
    37  H    0.030253
    38  H    0.016776
    39  H    0.014557
    40  H    0.010108
    41  H    0.010110
    42  H    0.017409
 Sum of Mulliken charges =  -0.00000
 Mulliken charges with hydrogens summed into heavy atoms:
               1
     1  C    0.012787
     2  C    0.012038
     3  C    0.042305
     4  C   -0.096318
     5  C    0.079872
     6  C   -0.073930
     7  C    0.050807
     8  C   -0.031379
     9  C   -0.089494
    10  C    0.053645
    11  C    0.052878
    12  C   -0.089819
    13  C    0.090073
    14  C   -0.095455
    15  C    0.039013
    16  C    0.016348
    17  C    0.012468
    18  C    0.036436
    19  C   -0.081762
    20  C    0.051768
    21  C   -0.029056
    22  C    0.090599
    23  C   -0.084727
    24  C    0.080817
    25  C   -0.093247
    26  C    0.043333
 Electronic spatial extent (au):  <R**2>=          12910.5261
 Charge=             -0.0000 electrons
 Dipole moment (field-independent basis, Debye):
    X=              0.0920    Y=              0.0815    Z=             -0.0000  Tot=              0.1229
 Unable to Open any file for archive entry.
 1\1\GINC-NODE01\SP\RMP2-FC\CC-pVDZ\C26H16\XUHJ\11-Oct-2024\0\\#T MP2/c
 c-pVDZ symm=veryloose\\c1ccc2cc3cc4c(ccc5cc6ccccc6cc54)cc3cc2c1\\0,1\C
 ,0,4.449768,5.400134,0.\C,0,3.146072,5.985138,0.\C,0,2.027924,5.190105
 ,0.\C,0,2.137839,3.762373,0.\C,0,1.014983,2.926324,0.\C,0,1.134635,1.5
 26097,0.\C,0,0.,0.670476,0.\C,0,0.105041,-0.710087,0.\C,0,1.433029,-1.
 29734,0.\C,0,1.570155,-2.736922,0.\C,0,0.488963,-3.554481,0.\C,0,-0.85
 9898,-3.03042,0.\C,0,-1.954149,-3.890177,0.\C,0,-3.281777,-3.412924,0.
 \C,0,-4.412296,-4.279809,0.\C,0,-5.691827,-3.76949,0.\C,0,-5.90382,-2.
 363853,0.\C,0,-4.831574,-1.498865,0.\C,0,-3.494913,-1.992143,0.\C,0,-2
 .37493,-1.129937,0.\C,0,-1.067132,-1.602288,0.\C,0,2.552521,-0.480087,
 0.\C,0,2.454861,0.934665,0.\C,0,3.581638,1.774631,0.\C,0,3.459934,3.16
 9049,0.\C,0,4.599521,4.036399,0.\H,0,5.330233,6.049474,0.\H,0,3.045707
 ,7.07452,0.\H,0,1.028287,5.635698,0.\H,0,0.016252,3.374751,0.\H,0,-0.9
 8114,1.149653,0.\H,0,2.581809,-3.153834,0.\H,0,0.614893,-4.641403,0.\H
 ,0,-1.780417,-4.971009,0.\H,0,-4.244995,-5.361389,0.\H,0,-6.55221,-4.4
 45218,0.\H,0,-6.925116,-1.971782,0.\H,0,-4.991898,-0.416106,0.\H,0,-2.
 572244,-0.055902,0.\H,0,3.546588,-0.938244,0.\H,0,4.579851,1.325338,0.
 \H,0,5.596995,3.586034,0.\\Version=ES64L-G16RevC.01\State=1-A'\HF=-994
 .0135506\MP2=-997.373628\RMSD=3.558e-09\PG=CS [SG(C26H16)]\\@
 The archive entry for this job was punched.


 IF I AM NOT FOR MYSELF, WHO WILL BE?
 BUT IF I AM ONLY FOR MYSELF, WHAT AM I?
 THOUGH A SEEKER SINCE MY BIRTH,
 HERE IS ALL I'VE LEARNED ON EARTH,
 THIS IS THE GIST OF WHAT I KNOW:
 GIVE ADVICE AND BUY A FOE.

 PRESSED FOR RULES AND VERITIES,
 ALL I RECOLLECT ARE THESE:
 FEED A COLD TO STARVE A FEVER,
 ARGUE WITH NO TRUE-BELIEVER.
 THINK-TOO-LONG IS NEVER-ACT,
 SCRATCH A MYTH AND FIND A FACT.

 STITCH IN TIME SAVES TWENTY STITCHES,
 GIVE THE RICH TO PLEASE THEM, RICHES.
 GIVE TO LOVE YOU HEARTH AND HALL,
 BUT DO NOT GIVE ADVICE AT ALL.

                                  -- HILLEL
 Job cpu time:       0 days  0 hours 22 minutes  3.9 seconds.
 Elapsed time:       0 days  0 hours  2 minutes 45.5 seconds.
 File lengths (MBytes):  RWF=  29309 Int=      0 D2E=      0 Chk=     14 Scr=      1
 Normal termination of Gaussian 16 at Fri Oct 11 15:49:09 2024.
