 Entering Gaussian System, Link 0=g16
 Initial command:
 /opt/g16/l1.exe "/tmp/Gau-2557613.inp" -scrdir="/tmp/"
 Entering Link 1 = /opt/g16/l1.exe PID=   2557615.
  
 Copyright (c) 1988-2019, Gaussian, Inc.  All Rights Reserved.
  
 This is part of the Gaussian(R) 16 program.  It is based on
 the Gaussian(R) 09 system (copyright 2009, Gaussian, Inc.),
 the Gaussian(R) 03 system (copyright 2003, Gaussian, Inc.),
 the Gaussian(R) 98 system (copyright 1998, Gaussian, Inc.),
 the Gaussian(R) 94 system (copyright 1995, Gaussian, Inc.),
 the Gaussian 92(TM) system (copyright 1992, Gaussian, Inc.),
 the Gaussian 90(TM) system (copyright 1990, Gaussian, Inc.),
 the Gaussian 88(TM) system (copyright 1988, Gaussian, Inc.),
 the Gaussian 86(TM) system (copyright 1986, Carnegie Mellon
 University), and the Gaussian 82(TM) system (copyright 1983,
 Carnegie Mellon University). Gaussian is a federally registered
 trademark of Gaussian, Inc.
  
 This software contains proprietary and confidential information,
 including trade secrets, belonging to Gaussian, Inc.
  
 This software is provided under written license and may be
 used, copied, transmitted, or stored only in accord with that
 written license.
  
 The following legend is applicable only to US Government
 contracts under FAR:
  
                    RESTRICTED RIGHTS LEGEND
  
 Use, reproduction and disclosure by the US Government is
 subject to restrictions as set forth in subparagraphs (a)
 and (c) of the Commercial Computer Software - Restricted
 Rights clause in FAR 52.227-19.
  
 Gaussian, Inc.
 340 Quinnipiac St., Bldg. 40, Wallingford CT 06492
  
  
 ---------------------------------------------------------------
 Warning -- This program may not be used in any manner that
 competes with the business of Gaussian, Inc. or will provide
 assistance to any competitor of Gaussian, Inc.  The licensee
 of this program is prohibited from giving any competitor of
 Gaussian, Inc. access to this program.  By using this program,
 the user acknowledges that Gaussian, Inc. is engaged in the
 business of creating and licensing software in the field of
 computational chemistry and represents and warrants to the
 licensee that it is not a competitor of Gaussian, Inc. and that
 it will not use this program in any manner prohibited above.
 ---------------------------------------------------------------
  

 Cite this work as:
 Gaussian 16, Revision C.01,
 M. J. Frisch, G. W. Trucks, H. B. Schlegel, G. E. Scuseria, 
 M. A. Robb, J. R. Cheeseman, G. Scalmani, V. Barone, 
 G. A. Petersson, H. Nakatsuji, X. Li, M. Caricato, A. V. Marenich, 
 J. Bloino, B. G. Janesko, R. Gomperts, B. Mennucci, H. P. Hratchian, 
 J. V. Ortiz, A. F. Izmaylov, J. L. Sonnenberg, D. Williams-Young, 
 F. Ding, F. Lipparini, F. Egidi, J. Goings, B. Peng, A. Petrone, 
 T. Henderson, D. Ranasinghe, V. G. Zakrzewski, J. Gao, N. Rega, 
 G. Zheng, W. Liang, M. Hada, M. Ehara, K. Toyota, R. Fukuda, 
 J. Hasegawa, M. Ishida, T. Nakajima, Y. Honda, O. Kitao, H. Nakai, 
 T. Vreven, K. Throssell, J. A. Montgomery, Jr., J. E. Peralta, 
 F. Ogliaro, M. J. Bearpark, J. J. Heyd, E. N. Brothers, K. N. Kudin, 
 V. N. Staroverov, T. A. Keith, R. Kobayashi, J. Normand, 
 K. Raghavachari, A. P. Rendell, J. C. Burant, S. S. Iyengar, 
 J. Tomasi, M. Cossi, J. M. Millam, M. Klene, C. Adamo, R. Cammi, 
 J. W. Ochterski, R. L. Martin, K. Morokuma, O. Farkas, 
 J. B. Foresman, and D. J. Fox, Gaussian, Inc., Wallingford CT, 2019.
 
 ******************************************
 Gaussian 16:  ES64L-G16RevC.01  3-Jul-2019
                11-Oct-2024 
 ******************************************
 %nprocshared=8
 Will use up to    8 processors via shared memory.
 %mem=10400MB
 -----------------------------
 #T MP2/cc-pVDZ symm=veryloose
 -----------------------------
 ----------------------------------------
 c1ccc2cc3cc4cc5c(ccc6ccccc65)cc4cc3cc2c1
 ----------------------------------------
 Symbolic Z-matrix:
 Charge =  0 Multiplicity = 1
 C                    -5.26833  -4.9447    0. 
 C                    -6.07363  -3.75923   0. 
 C                    -5.48795  -2.52161   0. 
 C                    -4.05946  -2.37818   0. 
 C                    -3.43729  -1.13198   0. 
 C                    -2.02995  -0.99857   0. 
 C                    -1.39409   0.25737   0. 
 C                     0.        0.38025   0. 
 C                     0.64705   1.64729   0. 
 C                     2.02447   1.78321   0. 
 C                     2.83623   0.57416   0. 
 C                     4.27495   0.69316   0. 
 C                     4.88488   1.90504   0. 
 C                     4.1242    3.13505   0. 
 C                     4.78234   4.38308   0. 
 C                     4.06635   5.57219   0. 
 C                     2.66264   5.53198   0. 
 C                     1.99774   4.31117   0. 
 C                     2.70025   3.08796   0. 
 C                     2.2272   -0.67025   0. 
 C                     0.81587  -0.82213   0. 
 C                     0.19002  -2.07415   0. 
 C                    -1.21148  -2.2031    0. 
 C                    -1.85435  -3.46238   0. 
 C                    -3.24206  -3.58137   0. 
 C                    -3.902    -4.85648   0. 
 H                    -5.75602  -5.92399   0. 
 H                    -7.16371  -3.85167   0. 
 H                    -6.10099  -1.61499   0. 
 H                    -4.05259  -0.22661   0. 
 H                    -2.00956   1.16257   0. 
 H                     0.00456   2.5299    0. 
 H                     4.86587  -0.22775   0. 
 H                     5.97679   1.97684   0. 
 H                     5.8767    4.39877   0. 
 H                     4.59065   6.53219   0. 
 H                     2.08705   6.46223   0. 
 H                     0.90624   4.31234   0. 
 H                     2.85164  -1.56919   0. 
 H                     0.80631  -2.97866   0. 
 H                    -1.23946  -4.36801   0. 
 H                    -3.28519  -5.76052   0. 
 
                    Distance matrix (angstroms):
                    1          2          3          4          5
     1  C    0.000000
     2  C    1.433130   0.000000
     3  C    2.433023   1.369197   0.000000
     4  C    2.836969   2.442160   1.435673   0.000000
     5  C    4.229608   3.721922   2.477156   1.392882   0.000000
     6  C    5.104813   4.896182   3.778555   2.454032   1.413654
     7  C    6.486238   6.166937   4.947976   3.748378   2.470822
     8  C    7.490684   7.350113   6.207931   4.907968   3.755234
     9  C    8.856975   8.625419   7.417410   6.193192   4.940257
    10  C    9.922186   9.813146   8.658409   7.370987   6.191057
    11  C    9.805184   9.907760   8.881203   7.501123   6.501380
    12  C   11.084205  11.265734  10.278571   8.882316   7.925262
    13  C   12.247719  12.335835  11.277897   9.917019   8.859009
    14  C   12.389594  12.309620  11.153087   9.867526   8.682378
    15  C   13.712161  13.570153  12.375524  11.130679   9.898389
    16  C   14.062049  13.780219  12.521755  11.368254  10.062329
    17  C   13.140060  12.753388  11.458297  10.380623   9.034241
    18  C   11.767196  11.413949  10.135211   9.024250   7.692034
    19  C   11.314676  11.129459   9.925420   8.693238   7.448307
    20  C    8.628666   8.856946   7.934175   6.514534   5.683280
    21  C    7.349359   7.489441   6.528894   5.117634   4.264436
    22  C    6.167139   6.486349   5.695575   4.260343   3.747676
    23  C    4.896364   5.105093   4.288316   2.853357   2.470129
    24  C    3.721898   4.229706   3.753414   2.457238   2.817179
    25  C    2.442217   2.837145   2.483368   1.454584   2.457164
    26  C    1.369174   2.433089   2.822558   2.483293   3.753379
    27  H    1.094007   2.187944   3.412925   3.930787   5.323525
    28  H    2.187969   1.094000   2.139446   3.436212   4.613346
    29  H    3.432244   2.144409   1.094428   2.179514   2.707135
    30  H    4.872206   4.069882   2.706896   2.151578   1.094658
    31  H    6.922304   6.382841   5.066791   4.091329   2.702468
    32  H    9.147292   8.746278   7.462266   6.372242   5.025498
    33  H   11.178177  11.495388  10.604880   9.180738   8.352254
    34  H   13.204558  13.345971  12.315695  10.940407   9.914113
    35  H   14.543456  14.469389  13.305903  12.027235  10.832341
    36  H   15.130058  14.820262  13.548052  12.418505  11.098981
    37  H   13.572750  13.079551  11.751169  10.767189   9.390965
    38  H   11.127354  10.670923   9.358873   8.331937   6.964680
    39  H    8.793630   9.190027   8.393800   6.958288   6.304110
    40  H    6.384870   6.924077   6.310837   4.902688   4.628004
    41  H    4.069929   4.872345   4.632367   3.451348   3.911820
    42  H    2.144390   3.432285   3.916976   3.469832   4.631044
                    6          7          8          9         10
     6  C    0.000000
     7  C    1.407723   0.000000
     8  C    2.453936   1.399492   0.000000
     9  C    3.763886   2.469436   1.422696   0.000000
    10  C    4.916971   3.743628   2.463089   1.384113   0.000000
    11  C    5.114011   4.242161   2.842850   2.438055   1.456287
    12  C    6.527913   5.685763   4.286388   3.751270   2.500576
    13  C    7.499719   6.491555   5.117331   4.245665   2.863005
    14  C    7.413523   6.223549   4.959636   3.782066   2.497264
    15  C    8.681549   7.427631   6.236459   4.958342   3.790134
    16  C    8.963239   7.619954   6.594807   5.205428   4.304138
    17  C    8.041667   6.654216   5.799141   4.376467   3.802698
    18  C    6.664498   5.285621   4.409436   2.986744   2.528097
    19  C    6.250955   4.977534   3.824012   2.508221   1.469366
    20  C    4.269789   3.738210   2.462514   2.804972   2.461829
    21  C    2.851284   2.459523   1.453055   2.475184   2.872028
    22  C    2.466806   2.818755   2.461744   3.749398   4.271358
    23  C    1.456294   2.467236   2.853308   4.275467   5.134403
    24  C    2.470067   3.748117   4.266661   5.689086   6.523920
    25  C    2.853089   4.260391   5.119119   6.516444   7.517656
    26  C    4.288130   5.695702   6.530609   7.936798   8.899918
    27  H    6.176038   7.565425   8.536694   9.915822  10.951577
    28  H    5.873311   7.083275   8.320331   9.552306  10.778436
    29  H    4.117445   5.065633   6.418958   7.495229   8.807434
    30  H    2.164949   2.702199   4.097776   5.059459   6.400789
    31  H    2.161228   1.094621   2.156472   2.700471   4.081500
    32  H    4.072990   2.668444   2.149657   1.091697   2.153508
    33  H    6.938766   6.278729   4.903711   4.616734   3.481026
    34  H    8.541711   7.568777   6.186365   5.339918   3.957057
    35  H    9.573207   8.367531   7.119280   5.909308   4.656265
    36  H   10.027196   8.671249   7.675973   6.278083   5.397971
    37  H    8.521328   7.114672   6.430105   5.025658   4.679430
    38  H    6.068512   4.662001   4.035170   2.677624   2.765304
    39  H    4.914823   4.621960   3.454295   3.899480   3.452945
    40  H    3.459068   3.913266   3.454331   4.628689   4.915219
    41  H    3.460924   4.627958   4.907358   6.304179   6.963532
    42  H    4.924617   6.308030   6.964299   8.386780   9.224988
                   11         12         13         14         15
    11  C    0.000000
    12  C    1.443635   0.000000
    13  C    2.442996   1.356714   0.000000
    14  C    2.866543   2.446547   1.446230   0.000000
    15  C    4.277293   3.724646   2.480165   1.410926   0.000000
    16  C    5.147187   4.883490   3.757393   2.437821   1.388024
    17  C    4.960862   5.100368   4.253595   2.807384   2.411029
    18  C    3.829927   4.275011   3.758335   2.430038   2.785524
    19  C    2.517478   2.866141   2.484336   1.424728   2.452023
    20  C    1.385449   2.460114   3.700729   4.251936   5.662587
    21  C    2.455903   3.776416   4.898398   5.157941   6.544240
    22  C    3.743791   4.934032   6.154325   6.527911   7.923714
    23  C    4.908881   6.203970   7.351358   7.547542   8.905258
    24  C    6.188308   7.405188   8.615477   8.903326  10.276033
    25  C    7.363017   8.647373   9.805505   9.968560  11.305903
    26  C    8.654217   9.882354  11.087262  11.326271  12.680184
    27  H   10.772772  12.016944  13.210695  13.404663  14.740849
    28  H   10.935574  12.308472  13.353216  13.275214  14.509280
    29  H    9.201424  10.629564  11.536029  11.274635  12.426728
    30  H    6.935205   8.378182   9.188166   8.840855   9.965199
    31  H    4.881386   6.302021   6.934310   6.443117   7.516754
    32  H    3.441409   4.648644   4.920168   4.163854   5.124594
    33  H    2.182318   1.094194   2.132874   3.443624   4.611590
    34  H    3.439569   2.131688   1.094263   2.184846   2.686396
    35  H    4.885912   4.036974   2.683728   2.160610   1.094480
    36  H    6.210976   5.847566   4.636502   3.429014   2.157644
    37  H    5.935541   6.170016   5.347510   3.901290   3.404030
    38  H    4.207001   4.944360   4.650239   3.426555   3.876744
    39  H    2.143403   2.672833   4.025463   4.873330   6.257567
    40  H    4.091830   5.051108   6.362803   6.955997   8.366840
    41  H    6.405953   7.484926   8.766909   9.223058  10.622786
    42  H    8.809078   9.940102  11.203161  11.577144  12.960616
                   16         17         18         19         20
    16  C    0.000000
    17  C    1.404284   0.000000
    18  C    2.422669   1.390135   0.000000
    19  C    2.835071   2.444310   1.410591   0.000000
    20  C    6.507730   6.217500   4.986705   3.787867   0.000000
    21  C    7.173072   6.617048   5.267600   4.340473   1.419477
    22  C    8.572776   7.997945   6.636279   5.740093   2.474076
    23  C    9.397374   8.651030   7.261874   6.580043   3.764859
    24  C   10.801767  10.064878   8.675638   7.978180   4.945204
    25  C   11.713264  10.859038   9.473527   8.932583   6.195761
    26  C   13.124468  12.288797  10.901956  10.329751   7.422369
    27  H   15.120883  14.216650  12.840533  12.358144   9.556859
    28  H   14.660269  13.587133  12.270459  12.060524   9.915175
    29  H   12.451118  11.308423  10.035375   9.978955   8.381603
    30  H    9.977140   8.846229   7.562934   7.522451   6.295444
    31  H    7.507429   6.396974   5.096290   5.088171   4.616211
    32  H    5.074812   4.009729   2.673146   2.752854   3.896296
    33  H    5.854789   6.166744   5.369172   3.960285   2.675517
    34  H    4.071403   4.860308   4.613236   3.459811   4.589825
    35  H    2.157381   3.407984   3.879953   3.436287   6.246104
    36  H    1.093847   2.172015   3.414111   3.928915   7.580313
    37  H    2.170210   1.093923   2.152909   3.429533   7.133856
    38  H    3.401992   2.138339   1.091503   2.172000   5.154720
    39  H    7.243953   7.103687   5.942037   4.659611   1.094538
    40  H    9.151224   8.710740   7.386552   6.355383   2.710660
    41  H   11.267615  10.641248   9.263238   8.432838   5.068643
    42  H   13.508346  12.763121  11.373137  10.682746   7.503149
                   21         22         23         24         25
    21  C    0.000000
    22  C    1.399731   0.000000
    23  C    2.453006   1.407420   0.000000
    24  C    3.755130   2.471158   1.413884   0.000000
    25  C    4.907161   3.748451   2.454157   1.392804   0.000000
    26  C    6.207595   4.948326   3.778794   2.477169   1.435761
    27  H    8.319778   7.083544   5.873486   4.613299   3.436254
    28  H    8.535333   7.565510   6.176314   5.323616   3.930956
    29  H    6.962154   6.307740   4.924748   4.631067   3.469886
    30  H    4.904752   4.627434   3.460984   3.911837   3.451285
    31  H    3.452844   3.913377   3.458996   4.627553   4.901429
    32  H    3.448819   4.607785   4.886719   6.273990   6.920126
    33  H    4.093383   5.027207   6.390324   7.458164   8.774130
    34  H    5.871055   7.063797   8.315234   9.534770  10.764799
    35  H    7.271162   8.616094   9.686435  11.025735  12.117528
    36  H    8.266505   9.666167  10.486665  11.892418  12.792014
    37  H    7.394443   8.744626   9.271903  10.678598  11.369840
    38  H    5.135265   6.426524   6.850960   8.250277   8.917343
    39  H    2.168510   2.709097   4.112272   5.072523   6.417324
    40  H    2.156549   1.094511   2.161709   2.704276   4.092993
    41  H    4.098490   2.702810   2.165086   1.094641   2.151556
    42  H    6.419218   5.066198   4.117704   2.707164   2.179576
                   26         27         28         29         30
    26  C    0.000000
    27  H    2.139385   0.000000
    28  H    3.412977   2.505222   0.000000
    29  H    3.916984   4.322789   2.476312   0.000000
    30  H    4.632311   5.946579   4.777042   2.474575   0.000000
    31  H    6.309532   8.015937   7.190817   4.945158   2.470584
    32  H    8.355818  10.229979   9.597318   7.379551   4.904977
    33  H    9.914669  12.052870  12.563587  11.054250   8.918464
    34  H   12.011854  14.145029  14.375128  12.600552  10.268576
    35  H   13.464120  15.552476  15.431208  13.402625  10.953767
    36  H   14.206581  16.192905  15.684061  13.442016  10.972107
    37  H   12.805533  14.660562  13.854712  11.501537   9.079412
    38  H   10.353079  12.213437  11.479334   9.177930   6.722502
    39  H    7.511182   9.646554  10.272146   8.952743   7.033556
    40  H    5.068963   7.192992   8.017697   7.040624   5.584149
    41  H    2.706973   4.777064   5.946708   5.586904   5.006478
    42  H    1.094420   2.476231   4.322809   5.011402   5.586864
                   31         32         33         34         35
    31  H    0.000000
    32  H    2.434393   0.000000
    33  H    7.014600   5.589010   0.000000
    34  H    8.027755   5.997786   2.468674   0.000000
    35  H    8.524446   6.162368   4.735658   2.423996   0.000000
    36  H    8.508569   6.086925   6.765546   4.761580   2.491071
    37  H    6.698403   4.449716   7.244148   5.937070   4.315015
    38  H    4.292195   1.997527   6.024211   5.582566   4.971217
    39  H    5.576181   4.990834   2.420041   4.726615   6.690855
    40  H    5.007887   5.566601   4.903828   7.161760   8.951833
    41  H    5.583932   7.009184   7.376776   9.608920  11.291418
    42  H    7.039628   8.919274   9.851462  12.068592  13.680327
                   36         37         38         39         40
    36  H    0.000000
    37  H    2.504584   0.000000
    38  H    4.301475   2.452823   0.000000
    39  H    8.285929   8.067731   6.194914   0.000000
    40  H   10.236094   9.527363   7.291683   2.483941   0.000000
    41  H   12.361416  11.329589   8.941609   4.956861   2.472949
    42  H   14.599304  13.351271  10.910109   7.431545   4.947636
                   41         42
    41  H    0.000000
    42  H    2.474688   0.000000
 Framework group  CS[SG(C26H16)]
 Deg. of freedom    81
                         Standard orientation:                         
 ---------------------------------------------------------------------
 Center     Atomic      Atomic             Coordinates (Angstroms)
 Number     Number       Type             X           Y           Z
 ---------------------------------------------------------------------
      1          6           0       -5.268327   -4.944702   -0.000000
      2          6           0       -6.073626   -3.759225   -0.000000
      3          6           0       -5.487952   -2.521612   -0.000000
      4          6           0       -4.059462   -2.378180   -0.000000
      5          6           0       -3.437291   -1.131976   -0.000000
      6          6           0       -2.029946   -0.998565   -0.000000
      7          6           0       -1.394087    0.257368   -0.000000
      8          6           0       -0.000000    0.380246    0.000000
      9          6           0        0.647050    1.647286    0.000000
     10          6           0        2.024472    1.783214    0.000000
     11          6           0        2.836229    0.574156    0.000000
     12          6           0        4.274951    0.693156    0.000000
     13          6           0        4.884884    1.905037    0.000000
     14          6           0        4.124200    3.135054    0.000000
     15          6           0        4.782335    4.383081    0.000000
     16          6           0        4.066351    5.572189    0.000000
     17          6           0        2.662643    5.531980    0.000000
     18          6           0        1.997739    4.311170    0.000000
     19          6           0        2.700251    3.087959    0.000000
     20          6           0        2.227202   -0.670253    0.000000
     21          6           0        0.815874   -0.822134   -0.000000
     22          6           0        0.190019   -2.074153   -0.000000
     23          6           0       -1.211481   -2.203101   -0.000000
     24          6           0       -1.854349   -3.462382   -0.000000
     25          6           0       -3.242061   -3.581372   -0.000000
     26          6           0       -3.901999   -4.856476   -0.000000
     27          1           0       -5.756016   -5.923993   -0.000000
     28          1           0       -7.163713   -3.851670   -0.000000
     29          1           0       -6.100987   -1.614991   -0.000000
     30          1           0       -4.052591   -0.226613   -0.000000
     31          1           0       -2.009563    1.162567   -0.000000
     32          1           0        0.004556    2.529898    0.000000
     33          1           0        4.865873   -0.227752    0.000000
     34          1           0        5.976789    1.976837    0.000000
     35          1           0        5.876703    4.398766    0.000000
     36          1           0        4.590654    6.532194    0.000000
     37          1           0        2.087048    6.462226    0.000000
     38          1           0        0.906237    4.312336    0.000000
     39          1           0        2.851639   -1.569192    0.000000
     40          1           0        0.806313   -2.978662   -0.000000
     41          1           0       -1.239463   -4.368006   -0.000000
     42          1           0       -3.285187   -5.760521   -0.000000
 ---------------------------------------------------------------------
 Rotational constants (GHZ):           0.8039438           0.0797238           0.0725312
   444 basis functions,   970 primitive gaussians,   470 cartesian basis functions
    86 alpha electrons       86 beta electrons
       nuclear repulsion energy      1915.1003227049 Hartrees.
 NAtoms=   42 NActive=   42 NUniq=   42 SFac= 1.00D+00 NAtFMM=   60 NAOKFM=F Big=F
 ExpMin= 1.22D-01 ExpMax= 6.67D+03 ExpMxC= 2.28D+02 IAcc=3 IRadAn=         5 AccDes= 0.00D+00
 Harris functional with IExCor=  205 and IRadAn=       5 diagonalized for initial guess.
 HarFok:  IExCor=  205 AccDes= 0.00D+00 IRadAn=         5 IDoV= 1 UseB2=F ITyADJ=14
 ICtDFT=  3500011 ScaDFX=  1.000000  1.000000  1.000000  1.000000
 FoFCou: FMM=F IPFlag=           0 FMFlag=      100000 FMFlg1=           0
         NFxFlg=           0 DoJE=T BraDBF=F KetDBF=T FulRan=T
         wScrn=  0.000000 ICntrl=       500 IOpCl=  0 I1Cent=   200000004 NGrid=           0
         NMat0=    1 NMatS0=      1 NMatT0=    0 NMatD0=    1 NMtDS0=    0 NMtDT0=    0
 Petite list used in FoFCou.
 Initial guess orbital symmetries:
       Occupied  (A') (A') (A') (A') (A') (A') (A') (A') (A') (A')
                 (A') (A') (A') (A') (A') (A') (A') (A') (A') (A')
                 (A') (A') (A') (A') (A') (A') (A') (A') (A') (A')
                 (A') (A') (A') (A') (A') (A') (A') (A') (A') (A')
                 (A') (A') (A') (A') (A') (A') (A') (A') (A') (A')
                 (A') (A') (A') (A') (A') (A') (A') (A') (A') (A')
                 (A') (A') (A') (A') (A') (A') (A") (A") (A') (A')
                 (A") (A') (A') (A') (A") (A') (A') (A") (A") (A")
                 (A") (A") (A") (A") (A") (A")
       Virtual   (A") (A") (A") (A") (A") (A") (A") (A") (A") (A")
                 (A') (A') (A') (A') (A") (A') (A') (A') (A') (A")
                 (A') (A') (A') (A') (A") (A') (A') (A') (A') (A')
                 (A') (A') (A') (A') (A') (A') (A') (A') (A') (A')
                 (A') (A') (A') (A') (A') (A') (A') (A') (A') (A')
                 (A') (A') (A') (A') (A') (A") (A') (A") (A') (A')
                 (A') (A") (A') (A") (A') (A') (A') (A") (A') (A')
                 (A") (A') (A') (A') (A') (A") (A') (A') (A') (A')
                 (A") (A') (A') (A') (A') (A') (A") (A") (A') (A")
                 (A') (A') (A") (A") (A') (A") (A") (A") (A") (A')
                 (A") (A') (A') (A') (A') (A') (A') (A') (A') (A")
                 (A') (A") (A') (A") (A') (A') (A") (A') (A') (A")
                 (A') (A") (A") (A") (A") (A") (A') (A') (A') (A")
                 (A') (A') (A") (A') (A') (A') (A") (A') (A') (A")
                 (A') (A') (A') (A') (A") (A") (A') (A') (A') (A")
                 (A") (A') (A") (A") (A") (A') (A') (A") (A") (A')
                 (A") (A') (A") (A') (A') (A") (A') (A') (A") (A")
                 (A') (A") (A') (A') (A') (A') (A') (A') (A') (A')
                 (A') (A') (A') (A') (A") (A') (A') (A") (A') (A")
                 (A') (A") (A') (A') (A") (A') (A") (A') (A') (A")
                 (A') (A') (A') (A") (A') (A') (A') (A') (A") (A')
                 (A") (A") (A') (A") (A') (A') (A") (A') (A') (A')
                 (A') (A') (A') (A') (A") (A') (A') (A') (A") (A')
                 (A') (A") (A') (A') (A") (A") (A') (A") (A") (A")
                 (A') (A") (A') (A') (A") (A") (A') (A") (A') (A")
                 (A') (A') (A') (A') (A') (A") (A') (A') (A") (A')
                 (A') (A") (A') (A') (A") (A') (A') (A') (A") (A")
                 (A') (A') (A") (A') (A') (A') (A') (A") (A") (A')
                 (A') (A') (A') (A') (A") (A") (A') (A') (A') (A')
                 (A") (A') (A') (A") (A') (A") (A') (A") (A') (A')
                 (A') (A') (A') (A") (A') (A') (A") (A') (A') (A')
                 (A') (A') (A') (A") (A") (A') (A') (A") (A') (A')
                 (A') (A") (A') (A') (A') (A') (A') (A') (A') (A')
                 (A') (A') (A') (A') (A') (A') (A') (A') (A') (A')
                 (A') (A') (A') (A') (A') (A') (A') (A') (A') (A')
                 (A') (A') (A') (A') (A') (A') (A') (A')
 The electronic state of the initial guess is 1-A'.
 Integral accuracy reduced to 1.0D-05 until final iterations.
 Initial convergence to 1.0D-05 achieved.  Increase integral accuracy.
 SCF Done:  E(RHF) =  -994.002267414     A.U. after   17 cycles
            NFock= 17  Conv=0.88D-08     -V/T= 2.0012
 ExpMin= 1.22D-01 ExpMax= 6.67D+03 ExpMxC= 2.28D+02 IAcc=3 IRadAn=         5 AccDes= 0.00D+00
 HarFok:  IExCor=  205 AccDes= 0.00D+00 IRadAn=         5 IDoV=-2 UseB2=F ITyADJ=14
 ICtDFT= 12500011 ScaDFX=  1.000000  1.000000  1.000000  1.000000
 GSVD:  LWork=        -884 too small for GESVD, short by        3770 words or        3770 for optimal perf.
 NROrb=    418 NOA=    60 NOB=    60 NVA=   358 NVB=   358

 **** Warning!!: The largest alpha MO coefficient is  0.15503114D+02

 Estimated scratch disk usage=  4781797680 words.
 Actual    scratch disk usage=  3770322224 words.
 ANorm=    0.1524338498D+01
 E2 =    -0.3363941988D+01 EUMP2 =    -0.99736620940129D+03

 **********************************************************************

            Population analysis using the SCF Density.

 **********************************************************************

 Orbital symmetries:
       Occupied  (A') (A') (A') (A') (A') (A') (A') (A') (A') (A')
                 (A') (A') (A') (A') (A') (A') (A') (A') (A') (A')
                 (A') (A') (A') (A') (A') (A') (A') (A') (A') (A')
                 (A') (A') (A') (A') (A') (A') (A') (A') (A') (A')
                 (A') (A') (A') (A') (A') (A') (A') (A') (A') (A')
                 (A') (A') (A') (A') (A') (A') (A') (A') (A') (A')
                 (A') (A') (A') (A') (A') (A") (A') (A") (A') (A')
                 (A") (A') (A') (A') (A') (A") (A') (A") (A") (A")
                 (A") (A") (A") (A") (A") (A")
       Virtual   (A") (A") (A") (A") (A") (A") (A') (A') (A') (A")
                 (A') (A") (A') (A') (A') (A') (A') (A') (A") (A')
                 (A') (A') (A') (A") (A') (A') (A") (A') (A') (A")
                 (A') (A') (A") (A') (A') (A') (A') (A') (A') (A')
                 (A') (A') (A') (A') (A') (A') (A') (A') (A') (A')
                 (A') (A') (A') (A') (A') (A") (A') (A') (A") (A')
                 (A') (A") (A') (A') (A") (A') (A") (A') (A") (A')
                 (A') (A") (A') (A') (A') (A") (A') (A') (A') (A')
                 (A") (A') (A') (A') (A") (A') (A') (A') (A") (A')
                 (A") (A') (A') (A") (A") (A") (A") (A') (A") (A')
                 (A") (A') (A') (A') (A") (A') (A") (A') (A") (A')
                 (A') (A') (A') (A') (A") (A') (A') (A') (A") (A")
                 (A') (A') (A") (A") (A") (A") (A') (A") (A') (A')
                 (A') (A") (A') (A') (A') (A') (A') (A') (A") (A')
                 (A") (A') (A') (A') (A") (A') (A') (A") (A') (A')
                 (A") (A") (A') (A") (A") (A') (A') (A") (A") (A")
                 (A') (A') (A") (A') (A') (A") (A') (A") (A') (A")
                 (A') (A') (A") (A') (A') (A") (A') (A') (A') (A')
                 (A') (A') (A') (A') (A') (A") (A') (A") (A') (A')
                 (A') (A") (A') (A") (A") (A") (A') (A") (A') (A')
                 (A') (A') (A') (A") (A') (A') (A') (A") (A") (A')
                 (A") (A') (A") (A') (A") (A') (A') (A') (A') (A')
                 (A') (A") (A') (A') (A') (A") (A') (A') (A") (A")
                 (A") (A') (A") (A') (A") (A') (A') (A") (A") (A')
                 (A') (A") (A') (A') (A') (A') (A") (A') (A') (A")
                 (A') (A") (A') (A') (A") (A') (A') (A') (A') (A")
                 (A') (A") (A') (A') (A") (A") (A') (A') (A") (A')
                 (A') (A') (A') (A') (A') (A") (A') (A") (A') (A")
                 (A') (A') (A') (A') (A") (A') (A") (A') (A') (A')
                 (A") (A') (A') (A") (A') (A") (A') (A") (A') (A')
                 (A') (A') (A") (A') (A") (A') (A') (A') (A') (A')
                 (A') (A') (A') (A") (A") (A') (A') (A') (A") (A")
                 (A') (A') (A') (A') (A') (A') (A') (A') (A') (A')
                 (A') (A') (A') (A') (A') (A') (A') (A') (A') (A')
                 (A') (A') (A') (A') (A') (A') (A') (A') (A') (A')
                 (A') (A') (A') (A') (A') (A') (A') (A')
 The electronic state is 1-A'.
 Alpha  occ. eigenvalues --  -11.25777 -11.25520 -11.25447 -11.25434 -11.25396
 Alpha  occ. eigenvalues --  -11.25349 -11.25341 -11.25294 -11.25255 -11.25198
 Alpha  occ. eigenvalues --  -11.24810 -11.24735 -11.24732 -11.24728 -11.24724
 Alpha  occ. eigenvalues --  -11.24699 -11.24689 -11.24655 -11.24650 -11.24612
 Alpha  occ. eigenvalues --  -11.24580 -11.24564 -11.24557 -11.24508 -11.24476
 Alpha  occ. eigenvalues --  -11.24414  -1.19539  -1.18136  -1.15864  -1.12832
 Alpha  occ. eigenvalues --   -1.09680  -1.07525  -1.06447  -1.04979  -1.02955
 Alpha  occ. eigenvalues --   -1.01653  -0.99124  -0.98511  -0.94205  -0.90666
 Alpha  occ. eigenvalues --   -0.85924  -0.84922  -0.83958  -0.81616  -0.80951
 Alpha  occ. eigenvalues --   -0.80204  -0.78611  -0.73305  -0.71374  -0.70026
 Alpha  occ. eigenvalues --   -0.68781  -0.68395  -0.65893  -0.64675  -0.64007
 Alpha  occ. eigenvalues --   -0.62853  -0.61686  -0.60692  -0.60412  -0.59414
 Alpha  occ. eigenvalues --   -0.58935  -0.58141  -0.57348  -0.56757  -0.56546
 Alpha  occ. eigenvalues --   -0.55606  -0.55138  -0.53747  -0.52760  -0.52181
 Alpha  occ. eigenvalues --   -0.50739  -0.49866  -0.49433  -0.47990  -0.47351
 Alpha  occ. eigenvalues --   -0.46756  -0.46488  -0.43043  -0.41619  -0.39455
 Alpha  occ. eigenvalues --   -0.37526  -0.34518  -0.32778  -0.29204  -0.28501
 Alpha  occ. eigenvalues --   -0.22493
 Alpha virt. eigenvalues --    0.01774   0.08384   0.08984   0.12198   0.14581
 Alpha virt. eigenvalues --    0.17184   0.17865   0.18470   0.18656   0.18889
 Alpha virt. eigenvalues --    0.19203   0.19843   0.19957   0.21100   0.21264
 Alpha virt. eigenvalues --    0.22783   0.23379   0.24413   0.24584   0.24816
 Alpha virt. eigenvalues --    0.26381   0.27392   0.29024   0.30255   0.30984
 Alpha virt. eigenvalues --    0.33914   0.35991   0.36049   0.38999   0.39898
 Alpha virt. eigenvalues --    0.40259   0.41437   0.42225   0.42529   0.42956
 Alpha virt. eigenvalues --    0.43618   0.45253   0.45847   0.46128   0.46486
 Alpha virt. eigenvalues --    0.47335   0.48550   0.49518   0.50869   0.51594
 Alpha virt. eigenvalues --    0.52549   0.53960   0.56712   0.58782   0.59764
 Alpha virt. eigenvalues --    0.62453   0.63284   0.63848   0.64479   0.64637
 Alpha virt. eigenvalues --    0.65324   0.65691   0.66130   0.66301   0.66569
 Alpha virt. eigenvalues --    0.67105   0.67899   0.68237   0.68687   0.68960
 Alpha virt. eigenvalues --    0.69250   0.69800   0.70301   0.70627   0.71270
 Alpha virt. eigenvalues --    0.71549   0.71894   0.72430   0.72496   0.72858
 Alpha virt. eigenvalues --    0.72982   0.73253   0.73655   0.74031   0.74216
 Alpha virt. eigenvalues --    0.74709   0.74909   0.75031   0.75783   0.75880
 Alpha virt. eigenvalues --    0.76794   0.77157   0.77521   0.77668   0.77926
 Alpha virt. eigenvalues --    0.78077   0.78644   0.79285   0.79728   0.80154
 Alpha virt. eigenvalues --    0.81875   0.83199   0.84123   0.85093   0.85936
 Alpha virt. eigenvalues --    0.86424   0.86462   0.87514   0.88483   0.89577
 Alpha virt. eigenvalues --    0.89640   0.90101   0.90754   0.90765   0.90786
 Alpha virt. eigenvalues --    0.91359   0.92701   0.93269   0.93925   0.94459
 Alpha virt. eigenvalues --    0.94708   0.95505   0.96452   0.97450   0.99403
 Alpha virt. eigenvalues --    0.99525   1.00340   1.01623   1.02883   1.03586
 Alpha virt. eigenvalues --    1.04685   1.07978   1.08274   1.08500   1.09229
 Alpha virt. eigenvalues --    1.09783   1.10223   1.10755   1.11222   1.12345
 Alpha virt. eigenvalues --    1.12852   1.13063   1.13703   1.13942   1.14319
 Alpha virt. eigenvalues --    1.14699   1.15419   1.16040   1.16953   1.17673
 Alpha virt. eigenvalues --    1.18085   1.18583   1.18588   1.18724   1.19723
 Alpha virt. eigenvalues --    1.20468   1.20999   1.21345   1.21439   1.22370
 Alpha virt. eigenvalues --    1.22557   1.23369   1.23604   1.24885   1.25867
 Alpha virt. eigenvalues --    1.25900   1.26456   1.27274   1.27687   1.29225
 Alpha virt. eigenvalues --    1.29613   1.29828   1.30792   1.31886   1.32441
 Alpha virt. eigenvalues --    1.33089   1.33350   1.33375   1.33711   1.35341
 Alpha virt. eigenvalues --    1.35417   1.35986   1.38364   1.41593   1.42557
 Alpha virt. eigenvalues --    1.47342   1.49198   1.53143   1.53878   1.54773
 Alpha virt. eigenvalues --    1.57688   1.58822   1.60415   1.60663   1.61994
 Alpha virt. eigenvalues --    1.62468   1.63006   1.63657   1.64403   1.65827
 Alpha virt. eigenvalues --    1.66450   1.66554   1.67734   1.68480   1.68803
 Alpha virt. eigenvalues --    1.69374   1.70271   1.70767   1.70888   1.71759
 Alpha virt. eigenvalues --    1.73241   1.73456   1.74214   1.74468   1.74477
 Alpha virt. eigenvalues --    1.74881   1.77036   1.77907   1.78520   1.78857
 Alpha virt. eigenvalues --    1.81102   1.82177   1.82651   1.83361   1.84173
 Alpha virt. eigenvalues --    1.85507   1.85871   1.86992   1.87995   1.88925
 Alpha virt. eigenvalues --    1.88965   1.89565   1.90193   1.90211   1.90781
 Alpha virt. eigenvalues --    1.91248   1.91582   1.91640   1.91959   1.93371
 Alpha virt. eigenvalues --    1.94218   1.94431   1.95230   1.95964   1.96280
 Alpha virt. eigenvalues --    1.96656   1.97149   1.97661   1.97786   1.99995
 Alpha virt. eigenvalues --    2.00140   2.00291   2.00765   2.02197   2.02211
 Alpha virt. eigenvalues --    2.02681   2.03594   2.04412   2.04835   2.05527
 Alpha virt. eigenvalues --    2.06128   2.06323   2.08227   2.09025   2.09201
 Alpha virt. eigenvalues --    2.09436   2.09553   2.11043   2.11449   2.12323
 Alpha virt. eigenvalues --    2.13420   2.13420   2.14827   2.14895   2.15905
 Alpha virt. eigenvalues --    2.16819   2.17371   2.17796   2.17929   2.18580
 Alpha virt. eigenvalues --    2.18683   2.20332   2.21003   2.21858   2.23606
 Alpha virt. eigenvalues --    2.24463   2.24859   2.26286   2.27965   2.28054
 Alpha virt. eigenvalues --    2.30450   2.30517   2.30798   2.31645   2.32594
 Alpha virt. eigenvalues --    2.33075   2.33244   2.34491   2.35046   2.35629
 Alpha virt. eigenvalues --    2.38152   2.39190   2.40423   2.44116   2.45357
 Alpha virt. eigenvalues --    2.46831   2.48867   2.49589   2.50442   2.50914
 Alpha virt. eigenvalues --    2.51992   2.53045   2.54115   2.54656   2.55930
 Alpha virt. eigenvalues --    2.56268   2.57927   2.60262   2.60454   2.62092
 Alpha virt. eigenvalues --    2.63226   2.65063   2.66290   2.68705   2.69315
 Alpha virt. eigenvalues --    2.71434   2.71535   2.73025   2.76349   2.76603
 Alpha virt. eigenvalues --    2.77468   2.80806   2.82019   2.85657   2.90198
 Alpha virt. eigenvalues --    2.91091   2.93319   2.94582   2.95900   2.98283
 Alpha virt. eigenvalues --    2.99274   3.02208   3.02822   3.04508   3.05989
 Alpha virt. eigenvalues --    3.06705   3.07022   3.11471   3.12818   3.15654
 Alpha virt. eigenvalues --    3.16526   3.20424   3.21971   3.22917   3.26897
 Alpha virt. eigenvalues --    3.30248   3.32391   3.56837   3.70212   3.75393
 Alpha virt. eigenvalues --    3.82696   3.90709   3.94241
          Condensed to atoms (all electrons):
 Mulliken charges:
               1
     1  C   -0.020059
     2  C   -0.020379
     3  C    0.027802
     4  C   -0.096343
     5  C    0.071867
     6  C   -0.085192
     7  C    0.070706
     8  C   -0.075065
     9  C    0.039877
    10  C   -0.036461
    11  C   -0.091237
    12  C    0.036687
    13  C    0.031651
    14  C   -0.100838
    15  C    0.024674
    16  C   -0.010049
    17  C    0.006290
    18  C   -0.029280
    19  C   -0.031385
    20  C    0.081034
    21  C   -0.084139
    22  C    0.070154
    23  C   -0.081952
    24  C    0.072733
    25  C   -0.095819
    26  C    0.027631
    27  H    0.031462
    28  H    0.031418
    29  H    0.017601
    30  H    0.010275
    31  H    0.008609
    32  H    0.013123
    33  H    0.017288
    34  H    0.019905
    35  H    0.018952
    36  H    0.029714
    37  H    0.027461
    38  H    0.024286
    39  H    0.010086
    40  H    0.008870
    41  H    0.010347
    42  H    0.017693
 Sum of Mulliken charges =  -0.00000
 Mulliken charges with hydrogens summed into heavy atoms:
               1
     1  C    0.011404
     2  C    0.011039
     3  C    0.045403
     4  C   -0.096343
     5  C    0.082142
     6  C   -0.085192
     7  C    0.079315
     8  C   -0.075065
     9  C    0.053000
    10  C   -0.036461
    11  C   -0.091237
    12  C    0.053975
    13  C    0.051555
    14  C   -0.100838
    15  C    0.043626
    16  C    0.019665
    17  C    0.033751
    18  C   -0.004994
    19  C   -0.031385
    20  C    0.091120
    21  C   -0.084139
    22  C    0.079024
    23  C   -0.081952
    24  C    0.083079
    25  C   -0.095819
    26  C    0.045325
 Electronic spatial extent (au):  <R**2>=          13699.9784
 Charge=             -0.0000 electrons
 Dipole moment (field-independent basis, Debye):
    X=             -0.0507    Y=              0.0920    Z=              0.0000  Tot=              0.1050
 Unable to Open any file for archive entry.
 1\1\GINC-NODE01\SP\RMP2-FC\CC-pVDZ\C26H16\XUHJ\11-Oct-2024\0\\#T MP2/c
 c-pVDZ symm=veryloose\\c1ccc2cc3cc4cc5c(ccc6ccccc65)cc4cc3cc2c1\\0,1\C
 ,0,-5.268327,-4.944703,0.\C,0,-6.073626,-3.759226,0.\C,0,-5.487952,-2.
 521613,0.\C,0,-4.059462,-2.37818,0.\C,0,-3.437291,-1.131976,0.\C,0,-2.
 029946,-0.998565,0.\C,0,-1.394087,0.257368,0.\C,0,0.,0.380246,0.\C,0,0
 .64705,1.647286,0.\C,0,2.024472,1.783214,0.\C,0,2.836229,0.574156,0.\C
 ,0,4.274951,0.693156,0.\C,0,4.884884,1.905037,0.\C,0,4.1242,3.135054,0
 .\C,0,4.782335,4.383081,0.\C,0,4.066351,5.572189,0.\C,0,2.662643,5.531
 98,0.\C,0,1.997739,4.31117,0.\C,0,2.700251,3.087959,0.\C,0,2.227202,-0
 .670253,0.\C,0,0.815874,-0.822134,0.\C,0,0.190019,-2.074153,0.\C,0,-1.
 211481,-2.203101,0.\C,0,-1.854349,-3.462382,0.\C,0,-3.242061,-3.581372
 ,0.\C,0,-3.901999,-4.856476,0.\H,0,-5.756015,-5.923994,0.\H,0,-7.16371
 3,-3.851671,0.\H,0,-6.100987,-1.614992,0.\H,0,-4.052591,-0.226613,0.\H
 ,0,-2.009563,1.162567,0.\H,0,0.004556,2.529898,0.\H,0,4.865873,-0.2277
 52,0.\H,0,5.976789,1.976838,0.\H,0,5.876703,4.398767,0.\H,0,4.590653,6
 .532194,0.\H,0,2.087047,6.462226,0.\H,0,0.906237,4.312336,0.\H,0,2.851
 639,-1.569192,0.\H,0,0.806313,-2.978662,0.\H,0,-1.239463,-4.368006,0.\
 H,0,-3.285186,-5.760521,0.\\Version=ES64L-G16RevC.01\State=1-A'\HF=-99
 4.0022674\MP2=-997.3662094\RMSD=8.833e-09\PG=CS [SG(C26H16)]\\@
 The archive entry for this job was punched.


 IF NO USE IS MADE OF THE LABOR OF PAST AGES,
 THE WORLD MUST REMAIN ALWAYS IN THE INFANCY OF KNOWLEDGE.

                          -- CICERO
 Job cpu time:       0 days  0 hours 21 minutes 13.9 seconds.
 Elapsed time:       0 days  0 hours  2 minutes 39.3 seconds.
 File lengths (MBytes):  RWF=  28879 Int=      0 D2E=      0 Chk=     14 Scr=      1
 Normal termination of Gaussian 16 at Fri Oct 11 15:51:51 2024.
