 Entering Gaussian System, Link 0=g16
 Initial command:
 /opt/g16/l1.exe "/tmp/Gau-2561571.inp" -scrdir="/tmp/"
 Entering Link 1 = /opt/g16/l1.exe PID=   2561573.
  
 Copyright (c) 1988-2019, Gaussian, Inc.  All Rights Reserved.
  
 This is part of the Gaussian(R) 16 program.  It is based on
 the Gaussian(R) 09 system (copyright 2009, Gaussian, Inc.),
 the Gaussian(R) 03 system (copyright 2003, Gaussian, Inc.),
 the Gaussian(R) 98 system (copyright 1998, Gaussian, Inc.),
 the Gaussian(R) 94 system (copyright 1995, Gaussian, Inc.),
 the Gaussian 92(TM) system (copyright 1992, Gaussian, Inc.),
 the Gaussian 90(TM) system (copyright 1990, Gaussian, Inc.),
 the Gaussian 88(TM) system (copyright 1988, Gaussian, Inc.),
 the Gaussian 86(TM) system (copyright 1986, Carnegie Mellon
 University), and the Gaussian 82(TM) system (copyright 1983,
 Carnegie Mellon University). Gaussian is a federally registered
 trademark of Gaussian, Inc.
  
 This software contains proprietary and confidential information,
 including trade secrets, belonging to Gaussian, Inc.
  
 This software is provided under written license and may be
 used, copied, transmitted, or stored only in accord with that
 written license.
  
 The following legend is applicable only to US Government
 contracts under FAR:
  
                    RESTRICTED RIGHTS LEGEND
  
 Use, reproduction and disclosure by the US Government is
 subject to restrictions as set forth in subparagraphs (a)
 and (c) of the Commercial Computer Software - Restricted
 Rights clause in FAR 52.227-19.
  
 Gaussian, Inc.
 340 Quinnipiac St., Bldg. 40, Wallingford CT 06492
  
  
 ---------------------------------------------------------------
 Warning -- This program may not be used in any manner that
 competes with the business of Gaussian, Inc. or will provide
 assistance to any competitor of Gaussian, Inc.  The licensee
 of this program is prohibited from giving any competitor of
 Gaussian, Inc. access to this program.  By using this program,
 the user acknowledges that Gaussian, Inc. is engaged in the
 business of creating and licensing software in the field of
 computational chemistry and represents and warrants to the
 licensee that it is not a competitor of Gaussian, Inc. and that
 it will not use this program in any manner prohibited above.
 ---------------------------------------------------------------
  

 Cite this work as:
 Gaussian 16, Revision C.01,
 M. J. Frisch, G. W. Trucks, H. B. Schlegel, G. E. Scuseria, 
 M. A. Robb, J. R. Cheeseman, G. Scalmani, V. Barone, 
 G. A. Petersson, H. Nakatsuji, X. Li, M. Caricato, A. V. Marenich, 
 J. Bloino, B. G. Janesko, R. Gomperts, B. Mennucci, H. P. Hratchian, 
 J. V. Ortiz, A. F. Izmaylov, J. L. Sonnenberg, D. Williams-Young, 
 F. Ding, F. Lipparini, F. Egidi, J. Goings, B. Peng, A. Petrone, 
 T. Henderson, D. Ranasinghe, V. G. Zakrzewski, J. Gao, N. Rega, 
 G. Zheng, W. Liang, M. Hada, M. Ehara, K. Toyota, R. Fukuda, 
 J. Hasegawa, M. Ishida, T. Nakajima, Y. Honda, O. Kitao, H. Nakai, 
 T. Vreven, K. Throssell, J. A. Montgomery, Jr., J. E. Peralta, 
 F. Ogliaro, M. J. Bearpark, J. J. Heyd, E. N. Brothers, K. N. Kudin, 
 V. N. Staroverov, T. A. Keith, R. Kobayashi, J. Normand, 
 K. Raghavachari, A. P. Rendell, J. C. Burant, S. S. Iyengar, 
 J. Tomasi, M. Cossi, J. M. Millam, M. Klene, C. Adamo, R. Cammi, 
 J. W. Ochterski, R. L. Martin, K. Morokuma, O. Farkas, 
 J. B. Foresman, and D. J. Fox, Gaussian, Inc., Wallingford CT, 2019.
 
 ******************************************
 Gaussian 16:  ES64L-G16RevC.01  3-Jul-2019
                11-Oct-2024 
 ******************************************
 %nprocshared=8
 Will use up to    8 processors via shared memory.
 %mem=10400MB
 -----------------------------
 #T MP2/cc-pVDZ symm=veryloose
 -----------------------------
 --------------------------------------
 c1ccc2cc3cc4cc5cc6ccccc6cc5cc4cc3cc2c1
 --------------------------------------
 Symbolic Z-matrix:
 Charge =  0 Multiplicity = 1
 C                     0.        7.35548   0.71776 
 C                     0.        7.35548  -0.71776 
 C                     0.        6.17738  -1.41244 
 C                     0.        4.91252  -0.729 
 C                     0.        3.70179  -1.41012 
 C                     0.        2.45694  -0.73027 
 C                     0.        1.23344  -1.4111 
 C                     0.        0.       -0.7309 
 C                     0.       -1.23344  -1.4111 
 C                     0.       -2.45694  -0.73027 
 C                     0.       -3.70179  -1.41012 
 C                     0.       -4.91252  -0.729 
 C                     0.       -6.17738  -1.41244 
 C                     0.       -7.35548  -0.71776 
 C                     0.       -7.35548   0.71776 
 C                     0.       -6.17738   1.41244 
 C                     0.       -4.91252   0.729 
 C                     0.       -3.70179   1.41012 
 C                     0.       -2.45694   0.73027 
 C                     0.       -1.23344   1.4111 
 C                     0.        0.        0.7309 
 C                     0.        1.23344   1.4111 
 C                     0.        2.45694   0.73027 
 C                     0.        3.70179   1.41012 
 C                     0.        4.91252   0.729 
 C                     0.        6.17738   1.41244 
 H                     0.        8.30966   1.25289 
 H                     0.        8.30966  -1.25289 
 H                     0.        6.17529  -2.50684 
 H                     0.        3.70223  -2.50472 
 H                     0.        1.23374  -2.50556 
 H                     0.       -1.23374  -2.50556 
 H                     0.       -3.70223  -2.50472 
 H                     0.       -6.17529  -2.50684 
 H                     0.       -8.30966  -1.25289 
 H                     0.       -8.30966   1.25289 
 H                     0.       -6.17529   2.50684 
 H                     0.       -3.70223   2.50472 
 H                     0.       -1.23374   2.50556 
 H                     0.        1.23374   2.50556 
 H                     0.        3.70223   2.50472 
 H                     0.        6.17529   2.50684 
 
                    Distance matrix (angstroms):
                    1          2          3          4          5
     1  C    0.000000
     2  C    1.435512   0.000000
     3  C    2.434268   1.367664   0.000000
     4  C    2.839214   2.442979   1.437688   0.000000
     5  C    4.228153   3.718710   2.475592   1.389170   0.000000
     6  C    5.108069   4.898547   3.782458   2.455578   1.418389
     7  C    6.481614   6.161171   4.943936   3.741776   2.468345
     8  C    7.496774   7.355487   6.214860   4.912522   3.763582
     9  C    8.848813   8.616856   7.410818   6.183697   4.935227
    10  C    9.918686   9.812427   8.661228   7.369466   6.196140
    11  C   11.260145  11.078916   9.879163   8.641193   7.403572
    12  C   12.353010  12.268002  11.110938   9.825044   8.641193
    13  C   13.699483  13.550671  12.354754  11.110938   9.879163
    14  C   14.780824  14.710950  13.550671  12.268002  11.078916
    15  C   14.710950  14.780824  13.699483  12.353010  11.260145
    16  C   13.550671  13.699483  12.673591  11.294762  10.274468
    17  C   12.268002  12.353010  11.294762   9.932637   8.875930
    18  C   11.078916  11.260145  10.274468   8.875930   7.922536
    19  C    9.812427   9.918686   8.896218   7.512556   6.520060
    20  C    8.616856   8.848813   7.930486   6.507910   5.684691
    21  C    7.355487   7.496774   6.538648   5.124861   4.276351
    22  C    6.161171   6.481614   5.693407   4.256251   3.748596
    23  C    4.898547   5.108069   4.293345   2.856454   2.476057
    24  C    3.718710   4.228153   3.754381   2.457989   2.820230
    25  C    2.442979   2.839214   2.487097   1.458008   2.457989
    26  C    1.367664   2.434268   2.824884   2.487097   3.754381
    27  H    1.093998   2.189500   3.413300   3.932992   5.322036
    28  H    2.189500   1.093998   2.138240   3.437292   4.610552
    29  H    3.433785   2.143285   1.094404   2.180665   2.705741
    30  H    4.871401   4.066869   2.705441   2.148948   1.094609
    31  H    6.918482   6.377449   5.063046   4.085288   2.700230
    32  H    9.174117   8.773306   7.491301   6.397868   5.055634
    33  H   11.517695  11.201169   9.939809   8.795863   7.484496
    34  H   13.909696  13.648532  12.401052  11.229439   9.937779
    35  H   15.788596  15.674269  14.487912  13.232553  12.012471
    36  H   15.674269  15.788596  14.730177  13.369888  12.303103
    37  H   13.648532  13.909696  12.959521  11.550337  10.625403
    38  H   11.201169  11.517695  10.627836   9.201686   8.375290
    39  H    8.773306   9.174117   8.383044   6.945428   6.300155
    40  H    6.377449   6.918482   6.307953   4.898554   4.628581
    41  H    4.066869   4.871401   4.633629   3.452795   3.914839
    42  H    2.143285   3.433785   3.919287   3.473513   4.632579
                    6          7          8          9         10
     6  C    0.000000
     7  C    1.400176   0.000000
     8  C    2.456944   1.408560   0.000000
     9  C    3.752662   2.466882   1.408560   0.000000
    10  C    4.913888   3.752662   2.456944   1.400176   0.000000
    11  C    6.196140   4.935227   3.763582   2.468345   1.418389
    12  C    7.369466   6.183697   4.912522   3.741776   2.455578
    13  C    8.661228   7.410818   6.214860   4.943936   3.782458
    14  C    9.812427   8.616856   7.355487   6.161171   4.898547
    15  C    9.918686   8.848813   7.496774   6.481614   5.108069
    16  C    8.896218   7.930486   6.538648   5.693407   4.293345
    17  C    7.512556   6.507910   5.124861   4.256251   2.856454
    18  C    6.520060   5.684691   4.276351   3.748596   2.476057
    19  C    5.126348   4.266659   2.858599   2.466251   1.460530
    20  C    4.266659   3.748373   2.471749   2.822196   2.466251
    21  C    2.858599   2.471749   1.461806   2.471749   2.858599
    22  C    2.466251   2.822196   2.471749   3.748373   4.266659
    23  C    1.460530   2.466251   2.858599   4.266659   5.126348
    24  C    2.476057   3.748596   4.276351   5.684691   6.520060
    25  C    2.856454   4.256251   5.124861   6.507910   7.512556
    26  C    4.293345   5.693407   6.538648   7.930486   8.896218
    27  H    6.179575   7.561062   8.543174   9.907953  10.947720
    28  H    5.876000   7.077983   8.326035   9.544408  10.779277
    29  H    4.120962   5.061870   6.425587   7.489323   8.813155
    30  H    2.167822   2.700177   4.105238   5.055384   6.409694
    31  H    2.155899   1.094463   2.161372   2.699045   4.095466
    32  H    4.095466   2.699045   2.161372   1.094463   2.155899
    33  H    6.409694   5.055384   4.105238   2.700177   2.167822
    34  H    8.813155   7.489323   6.425587   5.061870   4.120962
    35  H   10.779277   9.544408   8.326035   7.077983   5.876000
    36  H   10.947720   9.907953   8.543174   7.561062   6.179575
    37  H    9.219237   8.380905   6.972604   6.306516   4.930007
    38  H    6.957056   6.300361   4.916891   4.629104   3.466396
    39  H    4.908333   4.628953   3.463642   3.916659   3.459305
    40  H    3.459305   3.916659   3.463642   4.628953   4.908333
    41  H    3.466396   4.629104   4.916891   6.300361   6.957056
    42  H    4.930007   6.306516   6.972604   8.380905   9.219237
                   11         12         13         14         15
    11  C    0.000000
    12  C    1.389170   0.000000
    13  C    2.475592   1.437688   0.000000
    14  C    3.718710   2.442979   1.367664   0.000000
    15  C    4.228153   2.839214   2.434268   1.435512   0.000000
    16  C    3.754381   2.487097   2.824884   2.434268   1.367664
    17  C    2.457989   1.458008   2.487097   2.839214   2.442979
    18  C    2.820230   2.457989   3.754381   4.228153   3.718710
    19  C    2.476057   2.856454   4.293345   5.108069   4.898547
    20  C    3.748596   4.256251   5.693407   6.481614   6.161171
    21  C    4.276351   5.124861   6.538648   7.496774   7.355487
    22  C    5.684691   6.507910   7.930486   8.848813   8.616856
    23  C    6.520060   7.512556   8.896218   9.918686   9.812427
    24  C    7.922536   8.875930  10.274468  11.260145  11.078916
    25  C    8.875930   9.932637  11.294762  12.353010  12.268002
    26  C   10.274468  11.294762  12.673591  13.699483  13.550671
    27  H   12.303103  13.369888  14.730177  15.788596  15.674269
    28  H   12.012471  13.232553  14.487912  15.674269  15.788596
    29  H    9.937779  11.229439  12.401052  13.648532  13.909696
    30  H    7.484496   8.795863   9.939809  11.201169  11.517695
    31  H    5.055634   6.397868   7.491301   8.773306   9.174117
    32  H    2.700230   4.085288   5.063046   6.377449   6.918482
    33  H    1.094609   2.148948   2.705441   4.066869   4.871401
    34  H    2.705741   2.180665   1.094404   2.143285   3.433785
    35  H    4.610552   3.437292   2.138240   1.093998   2.189500
    36  H    5.322036   3.932992   3.413300   2.189500   1.093998
    37  H    4.632579   3.473513   3.919287   3.433785   2.143285
    38  H    3.914839   3.452795   4.633629   4.871401   4.066869
    39  H    4.628581   4.898554   6.307953   6.918482   6.377449
    40  H    6.300155   6.945428   8.383044   9.174117   8.773306
    41  H    8.375290   9.201686  10.627836  11.517695  11.201169
    42  H   10.625403  11.550337  12.959521  13.909696  13.648532
                   16         17         18         19         20
    16  C    0.000000
    17  C    1.437688   0.000000
    18  C    2.475592   1.389170   0.000000
    19  C    3.782458   2.455578   1.418389   0.000000
    20  C    4.943936   3.741776   2.468345   1.400176   0.000000
    21  C    6.214860   4.912522   3.763582   2.456944   1.408560
    22  C    7.410818   6.183697   4.935227   3.752662   2.466882
    23  C    8.661228   7.369466   6.196140   4.913888   3.752662
    24  C    9.879163   8.641193   7.403572   6.196140   4.935227
    25  C   11.110938   9.825044   8.641193   7.369466   6.183697
    26  C   12.354754  11.110938   9.879163   8.661228   7.410818
    27  H   14.487912  13.232553  12.012471  10.779277   9.544408
    28  H   14.730177  13.369888  12.303103  10.947720   9.907953
    29  H   12.959521  11.550337  10.625403   9.219237   8.380905
    30  H   10.627836   9.201686   8.375290   6.957056   6.300361
    31  H    8.383044   6.945428   6.300155   4.908333   4.628953
    32  H    6.307953   4.898554   4.628581   3.459305   3.916659
    33  H    4.633629   3.452795   3.914839   3.466396   4.629104
    34  H    3.919287   3.473513   4.632579   4.930007   6.306516
    35  H    3.413300   3.932992   5.322036   6.179575   7.561062
    36  H    2.138240   3.437292   4.610552   5.876000   7.077983
    37  H    1.094404   2.180665   2.705741   4.120962   5.061870
    38  H    2.705441   2.148948   1.094609   2.167822   2.700177
    39  H    5.063046   4.085288   2.700230   2.155899   1.094463
    40  H    7.491301   6.397868   5.055634   4.095466   2.699045
    41  H    9.939809   8.795863   7.484496   6.409694   5.055384
    42  H   12.401052  11.229439   9.937779   8.813155   7.489323
                   21         22         23         24         25
    21  C    0.000000
    22  C    1.408560   0.000000
    23  C    2.456944   1.400176   0.000000
    24  C    3.763582   2.468345   1.418389   0.000000
    25  C    4.912522   3.741776   2.455578   1.389170   0.000000
    26  C    6.214860   4.943936   3.782458   2.475592   1.437688
    27  H    8.326035   7.077983   5.876000   4.610552   3.437292
    28  H    8.543174   7.561062   6.179575   5.322036   3.932992
    29  H    6.972604   6.306516   4.930007   4.632579   3.473513
    30  H    4.916891   4.629104   3.466396   3.914839   3.452795
    31  H    3.463642   3.916659   3.459305   4.628581   4.898554
    32  H    3.463642   4.628953   4.908333   6.300155   6.945428
    33  H    4.916891   6.300361   6.957056   8.375290   9.201686
    34  H    6.972604   8.380905   9.219237  10.625403  11.550337
    35  H    8.543174   9.907953  10.947720  12.303103  13.369888
    36  H    8.326035   9.544408  10.779277  12.012471  13.232553
    37  H    6.425587   7.489323   8.813155   9.937779  11.229439
    38  H    4.105238   5.055384   6.409694   7.484496   8.795863
    39  H    2.161372   2.699045   4.095466   5.055634   6.397868
    40  H    2.161372   1.094463   2.155899   2.700230   4.085288
    41  H    4.105238   2.700177   2.167822   1.094609   2.148948
    42  H    6.425587   5.061870   4.120962   2.705741   2.180665
                   26         27         28         29         30
    26  C    0.000000
    27  H    2.138240   0.000000
    28  H    3.413300   2.505782   0.000000
    29  H    3.919287   4.323323   2.475463   0.000000
    30  H    4.633629   5.945419   4.774455   2.473057   0.000000
    31  H    6.307953   8.012148   7.185941   4.941548   2.468492
    32  H    8.383044  10.256822   9.625260   7.409032   4.935976
    33  H   10.627836  12.585912  12.076944   9.877524   7.404468
    34  H   12.959521  14.964935  14.539122  12.350580   9.877524
    35  H   14.730177  16.807155  16.619312  14.539122  12.076944
    36  H   14.487912  16.619312  16.807155  14.964935  12.585912
    37  H   12.401052  14.539122  14.964935  13.329437  11.076159
    38  H    9.939809  12.076944  12.585912  11.076159   8.939839
    39  H    7.491301   9.625260  10.256822   8.945276   7.033265
    40  H    5.063046   7.185941   8.012148   7.038686   5.585375
    41  H    2.705441   4.774455   5.945419   5.588544   5.009448
    42  H    1.094404   2.475463   4.323323   5.013688   5.588544
                   31         32         33         34         35
    31  H    0.000000
    32  H    2.467484   0.000000
    33  H    4.935976   2.468492   0.000000
    34  H    7.409032   4.941548   2.473057   0.000000
    35  H    9.625260   7.185941   4.774455   2.475463   0.000000
    36  H   10.256822   8.012148   5.945419   4.323323   2.505782
    37  H    8.945276   7.038686   5.588544   5.013688   4.323323
    38  H    7.033265   5.585375   5.009448   5.588544   5.945419
    39  H    5.585680   5.011122   5.585375   7.038686   8.012148
    40  H    5.011122   5.585680   7.033265   8.945276  10.256822
    41  H    5.585375   7.033265   8.939839  11.076159  12.585912
    42  H    7.038686   8.945276  11.076159  13.329437  14.964935
                   36         37         38         39         40
    36  H    0.000000
    37  H    2.475463   0.000000
    38  H    4.774455   2.473057   0.000000
    39  H    7.185941   4.941548   2.468492   0.000000
    40  H    9.625260   7.409032   4.935976   2.467484   0.000000
    41  H   12.076944   9.877524   7.404468   4.935976   2.468492
    42  H   14.539122  12.350580   9.877524   7.409032   4.941548
                   41         42
    41  H    0.000000
    42  H    2.473057   0.000000
 Framework group  D2H[C2"(C.C),SG(C24H16)]
 Deg. of freedom    21
                         Standard orientation:                         
 ---------------------------------------------------------------------
 Center     Atomic      Atomic             Coordinates (Angstroms)
 Number     Number       Type             X           Y           Z
 ---------------------------------------------------------------------
      1          6           0        0.000000    7.355475    0.717756
      2          6           0        0.000000    7.355475   -0.717756
      3          6           0        0.000000    6.177377   -1.412442
      4          6           0        0.000000    4.912522   -0.729004
      5          6           0        0.000000    3.701786   -1.410115
      6          6           0        0.000000    2.456944   -0.730265
      7          6           0        0.000000    1.233441   -1.411098
      8          6           0        0.000000    0.000000   -0.730903
      9          6           0       -0.000000   -1.233441   -1.411098
     10          6           0       -0.000000   -2.456944   -0.730265
     11          6           0       -0.000000   -3.701786   -1.410115
     12          6           0       -0.000000   -4.912522   -0.729004
     13          6           0       -0.000000   -6.177377   -1.412442
     14          6           0       -0.000000   -7.355475   -0.717756
     15          6           0       -0.000000   -7.355475    0.717756
     16          6           0       -0.000000   -6.177377    1.412442
     17          6           0       -0.000000   -4.912522    0.729004
     18          6           0       -0.000000   -3.701786    1.410115
     19          6           0       -0.000000   -2.456944    0.730265
     20          6           0       -0.000000   -1.233441    1.411098
     21          6           0       -0.000000    0.000000    0.730903
     22          6           0       -0.000000    1.233441    1.411098
     23          6           0       -0.000000    2.456944    0.730265
     24          6           0       -0.000000    3.701786    1.410115
     25          6           0       -0.000000    4.912522    0.729004
     26          6           0       -0.000000    6.177377    1.412442
     27          1           0        0.000000    8.309656    1.252891
     28          1           0        0.000000    8.309656   -1.252891
     29          1           0        0.000000    6.175290   -2.506844
     30          1           0        0.000000    3.702234   -2.504724
     31          1           0        0.000000    1.233742   -2.505561
     32          1           0       -0.000000   -1.233742   -2.505561
     33          1           0       -0.000000   -3.702234   -2.504724
     34          1           0       -0.000000   -6.175290   -2.506844
     35          1           0       -0.000000   -8.309656   -1.252891
     36          1           0       -0.000000   -8.309656    1.252891
     37          1           0       -0.000000   -6.175290    2.506844
     38          1           0       -0.000000   -3.702234    2.504724
     39          1           0       -0.000000   -1.233742    2.505561
     40          1           0       -0.000000    1.233742    2.505561
     41          1           0       -0.000000    3.702234    2.504724
     42          1           0       -0.000000    6.175290    2.506844
 ---------------------------------------------------------------------
 Rotational constants (GHZ):           1.1041735           0.0711699           0.0668604
   444 basis functions,   970 primitive gaussians,   470 cartesian basis functions
    86 alpha electrons       86 beta electrons
       nuclear repulsion energy      1894.1753304866 Hartrees.
 NAtoms=   42 NActive=   42 NUniq=   11 SFac= 4.00D+00 NAtFMM=   60 NAOKFM=F Big=F
 ExpMin= 1.22D-01 ExpMax= 6.67D+03 ExpMxC= 2.28D+02 IAcc=3 IRadAn=         5 AccDes= 0.00D+00
 Harris functional with IExCor=  205 and IRadAn=       5 diagonalized for initial guess.
 HarFok:  IExCor=  205 AccDes= 0.00D+00 IRadAn=         5 IDoV= 1 UseB2=F ITyADJ=14
 ICtDFT=  3500011 ScaDFX=  1.000000  1.000000  1.000000  1.000000
 FoFCou: FMM=F IPFlag=           0 FMFlag=      100000 FMFlg1=           0
         NFxFlg=           0 DoJE=T BraDBF=F KetDBF=T FulRan=T
         wScrn=  0.000000 ICntrl=       500 IOpCl=  0 I1Cent=   200000004 NGrid=           0
         NMat0=    1 NMatS0=      1 NMatT0=    0 NMatD0=    1 NMtDS0=    0 NMtDT0=    0
 Petite list used in FoFCou.
 Initial guess orbital symmetries:
       Occupied  (B2U) (AG) (B1U) (B3G) (B3G) (B1U) (AG) (B2U)
                 (B1U) (B3G) (B2U) (AG) (B1U) (AG) (B3G) (B2U)
                 (AG) (B1U) (B2U) (AG) (B3G) (B1U) (B2U) (AG) (B1U)
                 (B3G) (AG) (B2U) (AG) (B2U) (AG) (B1U) (B3G) (B2U)
                 (B1U) (B3G) (AG) (B1U) (B3G) (B2U) (B1U) (AG)
                 (AG) (B2U) (B3G) (B2U) (AG) (B1U) (B2U) (AG) (AG)
                 (B2U) (B3G) (AG) (B2U) (B1U) (AG) (B1U) (B3G)
                 (B2U) (B1U) (B3G) (B2U) (B1U) (B3G) (B3G) (B3U)
                 (AG) (B1G) (B1U) (B3U) (B2U) (B3G) (AG) (B1G)
                 (B2U) (AG) (B3U) (B2G) (AU) (B2G) (B1G) (AU) (B3U)
                 (B2G) (AU)
       Virtual   (B1G) (B3U) (B2G) (B1G) (AU) (B3U) (B1G) (B3U)
                 (B2G) (AU) (B1U) (AG) (B2U) (B3G) (B2G) (AG) (B2U)
                 (B1U) (AG) (AU) (B2U) (B3G) (B1U) (B2G) (AG) (B3G)
                 (B1U) (B2U) (AG) (B1U) (B3G) (B1U) (B2U) (B3G)
                 (B1U) (B3G) (B1U) (B3G) (B2U) (AG) (AG) (AG) (B2U)
                 (B2U) (AG) (B2U) (AG) (B1U) (B3G) (B2U) (AG) (B1U)
                 (B2U) (B1U) (B3G) (B3U) (B3G) (B1G) (B3G) (B1U)
                 (B2U) (B3U) (AG) (B2G) (B3G) (AG) (B2U) (B1U)
                 (B1G) (B1U) (AU) (AG) (B1U) (B3G) (B2U) (B3U)
                 (AG) (AG) (B1U) (B2G) (B2U) (B3G) (B1U) (AG) (B3G)
                 (B2U) (B3U) (B2U) (B1G) (B3G) (AU) (AG) (B1G)
                 (B2G) (B1U) (B3U) (AU) (B1G) (B3U) (B2G) (AG)
                 (B2U) (B3G) (B1U) (B2U) (AG) (B3G) (AG) (B2U)
                 (B1U) (B3G) (AU) (B1U) (B1G) (B3U) (B1U) (B3G)
                 (B2G) (B2U) (AG) (B2G) (AU) (AU) (B2G) (B3U) (B3G)
                 (B1G) (B1U) (B1G) (B1U) (B3G) (B3U) (B1U) (AG)
                 (B3G) (B3U) (B2U) (AG) (B2U) (B1G) (AG) (B2U)
                 (B1U) (AG) (B3G) (B1G) (B3U) (B1U) (B2U) (B1G)
                 (AG) (AU) (B2G) (B2U) (AU) (B3U) (B3G) (B2G) (B1G)
                 (AU) (AG) (B2U) (B1U) (B2G) (B3G) (B3U) (AU) (B1U)
                 (B3G) (B2U) (B1G) (AG) (B1U) (B3U) (B3G) (B3G)
                 (AG) (B1U) (B2U) (B3G) (AG) (B1U) (B2U) (AG) (B2U)
                 (AG) (B3U) (B2G) (B1U) (B1G) (B2G) (B2U) (AU)
                 (B3G) (B1U) (AU) (AG) (B2U) (B2G) (AG) (B2U) (B3G)
                 (B3U) (B1U) (AG) (B2U) (AG) (B3G) (B2U) (AG) (B1G)
                 (B2U) (AU) (B2G) (AG) (B3U) (B1G) (B2U) (B1U)
                 (B3G) (B3G) (AG) (B1U) (AG) (B2U) (B2G) (B3G)
                 (B1U) (AU) (B2U) (B3G) (AG) (AU) (B2U) (B1U) (B1G)
                 (B3U) (B3U) (B2G) (B1G) (B1U) (B2G) (B1G) (B3G)
                 (AU) (AG) (B3U) (B1U) (B2U) (AG) (B2G) (B3G) (AG)
                 (B2U) (B1U) (B3G) (AU) (B1G) (B1U) (B3G) (B1U)
                 (B2U) (AG) (B3G) (B3U) (B3U) (AU) (B2U) (AG) (B1U)
                 (AG) (B1G) (B2G) (B2U) (B3G) (B1U) (AG) (B2G)
                 (B3U) (B3G) (B3G) (B1U) (B2U) (B1U) (B1G) (AU)
                 (AG) (B3G) (B1U) (B2U) (B3G) (B3U) (B2U) (B1U)
                 (B1G) (AU) (B2G) (AG) (B2U) (B1U) (AG) (B3G) (B2U)
                 (B3G) (B2G) (AU) (AG) (B1U) (B2U) (B3G) (AG) (B2U)
                 (B1U) (B3G) (AU) (B2G) (B1U) (B3G) (B2G) (B2U)
                 (AU) (AG) (B1U) (B2U) (AG) (B1U) (B3G) (AG) (B3G)
                 (B1U) (B2U) (B3G) (B1U) (B3G) (B2U) (AG) (B3G)
                 (B1U) (AG) (B2U) (B1U) (B3G) (AG) (B1U) (B2U)
                 (B3G) (B1U) (B3G) (B1U) (AG) (B2U) (AG) (B1U)
                 (B3G) (B1U) (B3G) (B3G) (B1U)
 The electronic state of the initial guess is 1-AG.
 Integral accuracy reduced to 1.0D-05 until final iterations.
 Initial convergence to 1.0D-05 achieved.  Increase integral accuracy.
 SCF Done:  E(RHF) =  -993.976791010     A.U. after   16 cycles
            NFock= 16  Conv=0.84D-08     -V/T= 2.0012
 ExpMin= 1.22D-01 ExpMax= 6.67D+03 ExpMxC= 2.28D+02 IAcc=3 IRadAn=         5 AccDes= 0.00D+00
 HarFok:  IExCor=  205 AccDes= 0.00D+00 IRadAn=         5 IDoV=-2 UseB2=F ITyADJ=14
 ICtDFT= 12500011 ScaDFX=  1.000000  1.000000  1.000000  1.000000
 GSVD:  LWork=        -884 too small for GESVD, short by        3770 words or        3770 for optimal perf.
 NROrb=    418 NOA=    60 NOB=    60 NVA=   358 NVB=   358

 **** Warning!!: The largest alpha MO coefficient is  0.13468203D+02

 Estimated scratch disk usage=  1255168840 words.
 Actual    scratch disk usage=   945460552 words.
 (rs|ai) integrals will be sorted in core.
 ANorm=    0.1528416943D+01
 E2 =    -0.3370965944D+01 EUMP2 =    -0.99734775695402D+03

 **********************************************************************

            Population analysis using the SCF Density.

 **********************************************************************

 Orbital symmetries:
       Occupied  (AG) (B2U) (AG) (B1U) (B3G) (AG) (B2U) (B1U) (B3G)
                 (B1U) (B3G) (B2U) (AG) (B1U) (B2U) (AG) (B3G)
                 (B1U) (B2U) (AG) (B3G) (B1U) (AG) (B2U) (B1U)
                 (B3G) (AG) (B2U) (AG) (B2U) (AG) (B1U) (B3G) (B2U)
                 (B1U) (B3G) (AG) (B1U) (B3G) (B2U) (AG) (B1U)
                 (AG) (B2U) (B2U) (AG) (B3G) (B1U) (B2U) (AG) (AG)
                 (B3G) (B2U) (B2U) (B1U) (B1U) (B3G) (AG) (AG)
                 (B3G) (B1U) (B2U) (B1U) (B3G) (B2U) (B3U) (B3G)
                 (AG) (B1G) (B2U) (B3U) (B1U) (AG) (B3G) (B2U)
                 (B1G) (AG) (B2G) (B3U) (AU) (B2G) (B1G) (AU) (B3U)
                 (B2G) (AU)
       Virtual   (B1G) (B3U) (B2G) (B1G) (AU) (B3U) (B1U) (B2U)
                 (AG) (B1G) (B3G) (B3U) (AG) (B1U) (B2U) (AG) (B3G)
                 (B2G) (B2U) (B1U) (B3G) (AG) (B1U) (B2U) (AU)
                 (B3G) (B1U) (B2G) (B3G) (AU) (B2G) (AG) (AG) (B1U)
                 (B1U) (B2U) (B3G) (B2U) (AG) (B3G) (B1U) (B2U)
                 (AG) (AG) (B2U) (B2U) (B2U) (AG) (AG) (B2U) (B1U)
                 (B1U) (B3G) (B3G) (B1U) (B3U) (AG) (B3G) (B1U)
                 (B1G) (B2U) (AG) (B3U) (B1U) (B3G) (B1G) (B2U)
                 (B2G) (B3G) (AU) (B1U) (B3U) (B2G) (B3G) (B1U)
                 (AG) (B2U) (B1U) (B3G) (AG) (AU) (B2U) (B1G) (B1U)
                 (B3G) (AG) (B2U) (B3U) (AG) (AG) (B2G) (B2U) (B3G)
                 (B1G) (B3U) (AU) (B1G) (B3U) (B1U) (B2U) (B2G)
                 (AG) (AG) (B3G) (B2U) (AU) (B1G) (B3U) (B3G) (B1U)
                 (AG) (B1U) (B2U) (AG) (B2U) (B2G) (B3G) (B1U)
                 (B2G) (AU) (B3G) (B1U) (AU) (B2G) (B3U) (B1G)
                 (B1G) (B3G) (B1U) (AG) (B2U) (B1U) (B3G) (B3U)
                 (B1U) (B2U) (B3U) (AG) (B3G) (B1U) (AG) (B1G)
                 (B3G) (B2U) (B1G) (AG) (B1U) (B2U) (B3U) (AG)
                 (B2U) (B3G) (B1G) (AU) (B2G) (AU) (B3U) (B2U)
                 (B2G) (B1U) (AG) (B1G) (AU) (B3G) (B3G) (B2G)
                 (B1U) (B3U) (AG) (AU) (B2U) (B1U) (B3G) (B1G)
                 (B3G) (B3U) (B1U) (AG) (B2U) (B3G) (AG) (B1U)
                 (B2U) (AG) (B2U) (AG) (B3U) (B2G) (B1U) (B3G)
                 (B1G) (B1U) (AU) (B2U) (B2G) (AU) (B2G) (AG) (B3G)
                 (B2U) (AG) (B1U) (B3U) (B2U) (AG) (B2U) (B3G)
                 (AG) (AU) (B2G) (B1G) (B2U) (B3U) (AG) (B2U) (B1G)
                 (AG) (B1U) (B3G) (B2U) (B3G) (AG) (B2G) (B1U)
                 (AU) (B3G) (AG) (B1U) (B2U) (AU) (B3U) (B1G) (B2U)
                 (B2G) (B3G) (B3U) (B1G) (B1U) (B2G) (AG) (B2U)
                 (B1G) (AU) (B1U) (B3G) (AG) (B3G) (B1U) (B3U)
                 (B2U) (B1U) (AG) (B2G) (B3G) (B1U) (B3G) (AU)
                 (AG) (B2U) (B1G) (B1U) (B3U) (B2U) (AG) (AU) (B3G)
                 (B3U) (B2U) (B1U) (AG) (B1G) (AG) (B3G) (B1U)
                 (B2G) (B2U) (AG) (B3G) (B3U) (B2G) (B3G) (B1U)
                 (B2U) (B1U) (B1G) (B1U) (AU) (B3G) (AG) (B2U)
                 (B3U) (B3G) (B1U) (B2U) (B1G) (AU) (B2G) (AG)
                 (B2U) (B3G) (AG) (B1U) (AU) (B2G) (B2U) (B1U)
                 (B2U) (B3G) (AG) (B3G) (AG) (B2U) (B1U) (B3G)
                 (AU) (B2G) (B1U) (B3G) (B1U) (B2G) (AU) (AG) (B2U)
                 (B1U) (B3G) (AG) (B2U) (AG) (B3G) (B2U) (B3G)
                 (B1U) (B1U) (B3G) (AG) (B2U) (B3G) (B1U) (AG)
                 (B1U) (B3G) (B2U) (B1U) (B3G) (AG) (B1U) (B3G)
                 (B2U) (B1U) (AG) (B2U) (AG) (B1U) (B3G) (B1U)
                 (B3G) (B3G) (B1U)
 The electronic state is 1-AG.
 Alpha  occ. eigenvalues --  -11.25490 -11.25474 -11.25472 -11.25409 -11.25391
 Alpha  occ. eigenvalues --  -11.25389 -11.25389 -11.25388 -11.25305 -11.25305
 Alpha  occ. eigenvalues --  -11.24792 -11.24790 -11.24781 -11.24781 -11.24730
 Alpha  occ. eigenvalues --  -11.24730 -11.24728 -11.24728 -11.24725 -11.24725
 Alpha  occ. eigenvalues --  -11.24683 -11.24683 -11.24583 -11.24583 -11.24536
 Alpha  occ. eigenvalues --  -11.24536  -1.19456  -1.18104  -1.15908  -1.12922
 Alpha  occ. eigenvalues --   -1.09170  -1.07767  -1.06334  -1.04738  -1.04102
 Alpha  occ. eigenvalues --   -1.01104  -1.00389  -0.97415  -0.93196  -0.91830
 Alpha  occ. eigenvalues --   -0.86266  -0.85152  -0.81961  -0.81647  -0.80941
 Alpha  occ. eigenvalues --   -0.80132  -0.79859  -0.73880  -0.71174  -0.69743
 Alpha  occ. eigenvalues --   -0.68656  -0.67865  -0.66398  -0.63854  -0.63217
 Alpha  occ. eigenvalues --   -0.63084  -0.62615  -0.62085  -0.59248  -0.58944
 Alpha  occ. eigenvalues --   -0.58573  -0.58086  -0.58057  -0.57401  -0.56202
 Alpha  occ. eigenvalues --   -0.55522  -0.54463  -0.54285  -0.53691  -0.51169
 Alpha  occ. eigenvalues --   -0.50725  -0.50404  -0.48823  -0.48315  -0.47308
 Alpha  occ. eigenvalues --   -0.46665  -0.46619  -0.42486  -0.41554  -0.40436
 Alpha  occ. eigenvalues --   -0.37160  -0.35621  -0.32689  -0.29637  -0.27143
 Alpha  occ. eigenvalues --   -0.20908
 Alpha virt. eigenvalues --    0.00154   0.06967   0.09391   0.12908   0.16004
 Alpha virt. eigenvalues --    0.16981   0.17946   0.18637   0.18650   0.18913
 Alpha virt. eigenvalues --    0.19058   0.19360   0.20066   0.20917   0.21035
 Alpha virt. eigenvalues --    0.22545   0.23209   0.23508   0.24264   0.24661
 Alpha virt. eigenvalues --    0.25933   0.26667   0.28771   0.30074   0.30727
 Alpha virt. eigenvalues --    0.33137   0.34114   0.36498   0.38682   0.39671
 Alpha virt. eigenvalues --    0.40274   0.40462   0.41781   0.41833   0.43445
 Alpha virt. eigenvalues --    0.44110   0.44510   0.46023   0.46574   0.46868
 Alpha virt. eigenvalues --    0.47131   0.48728   0.49067   0.50553   0.51608
 Alpha virt. eigenvalues --    0.52660   0.53274   0.54491   0.59392   0.60014
 Alpha virt. eigenvalues --    0.62109   0.62531   0.63498   0.63609   0.63945
 Alpha virt. eigenvalues --    0.65409   0.65924   0.65957   0.66186   0.66263
 Alpha virt. eigenvalues --    0.66529   0.67253   0.67655   0.68261   0.68823
 Alpha virt. eigenvalues --    0.69584   0.70324   0.70417   0.70496   0.70616
 Alpha virt. eigenvalues --    0.70760   0.72168   0.72212   0.72278   0.72821
 Alpha virt. eigenvalues --    0.72974   0.73002   0.73399   0.73616   0.73921
 Alpha virt. eigenvalues --    0.74932   0.74991   0.75530   0.75741   0.75770
 Alpha virt. eigenvalues --    0.75819   0.76533   0.77728   0.77929   0.78116
 Alpha virt. eigenvalues --    0.78231   0.78434   0.79526   0.79746   0.79781
 Alpha virt. eigenvalues --    0.81970   0.83469   0.84587   0.84846   0.85886
 Alpha virt. eigenvalues --    0.86409   0.86762   0.87386   0.88637   0.89114
 Alpha virt. eigenvalues --    0.89591   0.90149   0.90498   0.90790   0.90856
 Alpha virt. eigenvalues --    0.91458   0.91625   0.93204   0.93951   0.94006
 Alpha virt. eigenvalues --    0.94877   0.95301   0.95374   0.98073   0.98836
 Alpha virt. eigenvalues --    0.99110   0.99149   1.01718   1.02273   1.03597
 Alpha virt. eigenvalues --    1.05002   1.06699   1.07666   1.07777   1.09403
 Alpha virt. eigenvalues --    1.09762   1.10040   1.10269   1.10288   1.11354
 Alpha virt. eigenvalues --    1.12188   1.12583   1.13212   1.13461   1.13639
 Alpha virt. eigenvalues --    1.14588   1.14905   1.15897   1.17022   1.17566
 Alpha virt. eigenvalues --    1.17849   1.18694   1.18801   1.18957   1.19505
 Alpha virt. eigenvalues --    1.19567   1.20936   1.21285   1.21306   1.21488
 Alpha virt. eigenvalues --    1.22216   1.22640   1.23642   1.23999   1.25363
 Alpha virt. eigenvalues --    1.25400   1.26651   1.27028   1.28810   1.29237
 Alpha virt. eigenvalues --    1.30411   1.30412   1.30502   1.30749   1.31629
 Alpha virt. eigenvalues --    1.31993   1.32713   1.33087   1.33651   1.34211
 Alpha virt. eigenvalues --    1.35395   1.36977   1.37301   1.40832   1.42755
 Alpha virt. eigenvalues --    1.48126   1.48267   1.51503   1.53183   1.53424
 Alpha virt. eigenvalues --    1.55178   1.57535   1.60199   1.61426   1.62664
 Alpha virt. eigenvalues --    1.63387   1.64543   1.64835   1.64883   1.64895
 Alpha virt. eigenvalues --    1.66373   1.67131   1.68271   1.68402   1.68846
 Alpha virt. eigenvalues --    1.69330   1.69512   1.70397   1.70478   1.71266
 Alpha virt. eigenvalues --    1.71460   1.73048   1.74077   1.74150   1.74188
 Alpha virt. eigenvalues --    1.75682   1.76033   1.77959   1.77985   1.78182
 Alpha virt. eigenvalues --    1.78569   1.79871   1.83173   1.83246   1.83376
 Alpha virt. eigenvalues --    1.84568   1.85735   1.85782   1.87563   1.88883
 Alpha virt. eigenvalues --    1.89285   1.89429   1.89537   1.89847   1.90410
 Alpha virt. eigenvalues --    1.90731   1.90806   1.92242   1.93063   1.94495
 Alpha virt. eigenvalues --    1.94670   1.95014   1.95114   1.95712   1.95970
 Alpha virt. eigenvalues --    1.96182   1.97045   1.97378   1.97432   1.98836
 Alpha virt. eigenvalues --    1.98859   2.00283   2.00908   2.02163   2.02354
 Alpha virt. eigenvalues --    2.02406   2.03139   2.03782   2.03891   2.04874
 Alpha virt. eigenvalues --    2.06191   2.06196   2.07466   2.08129   2.08749
 Alpha virt. eigenvalues --    2.09202   2.09422   2.10890   2.11733   2.12333
 Alpha virt. eigenvalues --    2.12354   2.13727   2.14588   2.15012   2.15662
 Alpha virt. eigenvalues --    2.15763   2.17208   2.17625   2.17724   2.17756
 Alpha virt. eigenvalues --    2.18188   2.21014   2.21104   2.22461   2.23116
 Alpha virt. eigenvalues --    2.24958   2.25510   2.27732   2.28159   2.28409
 Alpha virt. eigenvalues --    2.29647   2.30190   2.31061   2.31352   2.31757
 Alpha virt. eigenvalues --    2.32637   2.32979   2.33964   2.34455   2.34771
 Alpha virt. eigenvalues --    2.37667   2.39811   2.40604   2.45976   2.48237
 Alpha virt. eigenvalues --    2.49017   2.49404   2.50484   2.51139   2.51928
 Alpha virt. eigenvalues --    2.52758   2.53460   2.53684   2.53720   2.54596
 Alpha virt. eigenvalues --    2.56067   2.56507   2.58677   2.58955   2.60256
 Alpha virt. eigenvalues --    2.62051   2.64927   2.65313   2.67263   2.68702
 Alpha virt. eigenvalues --    2.68875   2.71450   2.71452   2.76266   2.76672
 Alpha virt. eigenvalues --    2.77275   2.77308   2.82885   2.89169   2.89453
 Alpha virt. eigenvalues --    2.90347   2.91403   2.94169   2.95980   2.96346
 Alpha virt. eigenvalues --    2.98585   3.01671   3.02444   3.05666   3.05857
 Alpha virt. eigenvalues --    3.06476   3.07458   3.12116   3.13390   3.16149
 Alpha virt. eigenvalues --    3.16925   3.21606   3.22664   3.23754   3.27256
 Alpha virt. eigenvalues --    3.29849   3.30644   3.55335   3.66712   3.78020
 Alpha virt. eigenvalues --    3.84577   3.90431   3.90559
          Condensed to atoms (all electrons):
 Mulliken charges:
               1
     1  C   -0.021050
     2  C   -0.021050
     3  C    0.029135
     4  C   -0.097679
     5  C    0.073577
     6  C   -0.083917
     7  C    0.071233
     8  C   -0.081686
     9  C    0.071233
    10  C   -0.083917
    11  C    0.073577
    12  C   -0.097679
    13  C    0.029135
    14  C   -0.021050
    15  C   -0.021050
    16  C    0.029135
    17  C   -0.097679
    18  C    0.073577
    19  C   -0.083917
    20  C    0.071233
    21  C   -0.081686
    22  C    0.071233
    23  C   -0.083917
    24  C    0.073577
    25  C   -0.097679
    26  C    0.029135
    27  H    0.031689
    28  H    0.031689
    29  H    0.017881
    30  H    0.010657
    31  H    0.009319
    32  H    0.009319
    33  H    0.010657
    34  H    0.017881
    35  H    0.031689
    36  H    0.031689
    37  H    0.017881
    38  H    0.010657
    39  H    0.009319
    40  H    0.009319
    41  H    0.010657
    42  H    0.017881
 Sum of Mulliken charges =  -0.00000
 Mulliken charges with hydrogens summed into heavy atoms:
               1
     1  C    0.010638
     2  C    0.010638
     3  C    0.047015
     4  C   -0.097679
     5  C    0.084233
     6  C   -0.083917
     7  C    0.080552
     8  C   -0.081686
     9  C    0.080552
    10  C   -0.083917
    11  C    0.084233
    12  C   -0.097679
    13  C    0.047015
    14  C    0.010638
    15  C    0.010638
    16  C    0.047015
    17  C   -0.097679
    18  C    0.084233
    19  C   -0.083917
    20  C    0.080552
    21  C   -0.081686
    22  C    0.080552
    23  C   -0.083917
    24  C    0.084233
    25  C   -0.097679
    26  C    0.047015
 Electronic spatial extent (au):  <R**2>=          14821.5213
 Charge=             -0.0000 electrons
 Dipole moment (field-independent basis, Debye):
    X=             -0.0000    Y=             -0.0000    Z=              0.0000  Tot=              0.0000
 Unable to Open any file for archive entry.
 1\1\GINC-NODE01\SP\RMP2-FC\CC-pVDZ\C26H16\XUHJ\11-Oct-2024\0\\#T MP2/c
 c-pVDZ symm=veryloose\\c1ccc2cc3cc4cc5cc6ccccc6cc5cc4cc3cc2c1\\0,1\C,0
 ,0.,7.355475,0.717756\C,0,0.,7.355475,-0.717756\C,0,0.,6.177377,-1.412
 442\C,0,0.,4.912522,-0.729004\C,0,0.,3.701786,-1.410115\C,0,0.,2.45694
 4,-0.730265\C,0,0.,1.233441,-1.411098\C,0,0.,0.,-0.730903\C,0,0.,-1.23
 3441,-1.411098\C,0,0.,-2.456944,-0.730265\C,0,0.,-3.701786,-1.410115\C
 ,0,0.,-4.912522,-0.729004\C,0,0.,-6.177377,-1.412442\C,0,0.,-7.355475,
 -0.717756\C,0,0.,-7.355475,0.717756\C,0,0.,-6.177377,1.412442\C,0,0.,-
 4.912522,0.729004\C,0,0.,-3.701786,1.410115\C,0,0.,-2.456944,0.730265\
 C,0,0.,-1.233441,1.411098\C,0,0.,0.,0.730903\C,0,0.,1.233441,1.411098\
 C,0,0.,2.456944,0.730265\C,0,0.,3.701786,1.410115\C,0,0.,4.912522,0.72
 9004\C,0,0.,6.177377,1.412442\H,0,0.,8.309656,1.252891\H,0,0.,8.309656
 ,-1.252891\H,0,0.,6.17529,-2.506844\H,0,0.,3.702234,-2.504724\H,0,0.,1
 .233742,-2.505561\H,0,0.,-1.233742,-2.505561\H,0,0.,-3.702234,-2.50472
 4\H,0,0.,-6.17529,-2.506844\H,0,0.,-8.309656,-1.252891\H,0,0.,-8.30965
 6,1.252891\H,0,0.,-6.17529,2.506844\H,0,0.,-3.702234,2.504724\H,0,0.,-
 1.233742,2.505561\H,0,0.,1.233742,2.505561\H,0,0.,3.702234,2.504724\H,
 0,0.,6.17529,2.506844\\Version=ES64L-G16RevC.01\State=1-AG\HF=-993.976
 791\MP2=-997.347757\RMSD=8.404e-09\PG=D02H [C2"(C1.C1),SG(C24H16)]\\@
 The archive entry for this job was punched.


 LENDING MONEY TO FRIENDS CAUSES THEM TO LOSE THEIR MEMORIES.

    --  PETER'S THEORY OF RECIPROCAL INHIBITION OF FISCAL RECALL
 Job cpu time:       0 days  0 hours  4 minutes 59.3 seconds.
 Elapsed time:       0 days  0 hours  0 minutes 37.4 seconds.
 File lengths (MBytes):  RWF=   7327 Int=      0 D2E=      0 Chk=     14 Scr=      1
 Normal termination of Gaussian 16 at Fri Oct 11 15:52:29 2024.
