 Entering Gaussian System, Link 0=g16
 Initial command:
 /opt/g16/l1.exe "/tmp/Gau-1442470.inp" -scrdir="/tmp/"
 Entering Link 1 = /opt/g16/l1.exe PID=   1442471.
  
 Copyright (c) 1988-2019, Gaussian, Inc.  All Rights Reserved.
  
 This is part of the Gaussian(R) 16 program.  It is based on
 the Gaussian(R) 09 system (copyright 2009, Gaussian, Inc.),
 the Gaussian(R) 03 system (copyright 2003, Gaussian, Inc.),
 the Gaussian(R) 98 system (copyright 1998, Gaussian, Inc.),
 the Gaussian(R) 94 system (copyright 1995, Gaussian, Inc.),
 the Gaussian 92(TM) system (copyright 1992, Gaussian, Inc.),
 the Gaussian 90(TM) system (copyright 1990, Gaussian, Inc.),
 the Gaussian 88(TM) system (copyright 1988, Gaussian, Inc.),
 the Gaussian 86(TM) system (copyright 1986, Carnegie Mellon
 University), and the Gaussian 82(TM) system (copyright 1983,
 Carnegie Mellon University). Gaussian is a federally registered
 trademark of Gaussian, Inc.
  
 This software contains proprietary and confidential information,
 including trade secrets, belonging to Gaussian, Inc.
  
 This software is provided under written license and may be
 used, copied, transmitted, or stored only in accord with that
 written license.
  
 The following legend is applicable only to US Government
 contracts under FAR:
  
                    RESTRICTED RIGHTS LEGEND
  
 Use, reproduction and disclosure by the US Government is
 subject to restrictions as set forth in subparagraphs (a)
 and (c) of the Commercial Computer Software - Restricted
 Rights clause in FAR 52.227-19.
  
 Gaussian, Inc.
 340 Quinnipiac St., Bldg. 40, Wallingford CT 06492
  
  
 ---------------------------------------------------------------
 Warning -- This program may not be used in any manner that
 competes with the business of Gaussian, Inc. or will provide
 assistance to any competitor of Gaussian, Inc.  The licensee
 of this program is prohibited from giving any competitor of
 Gaussian, Inc. access to this program.  By using this program,
 the user acknowledges that Gaussian, Inc. is engaged in the
 business of creating and licensing software in the field of
 computational chemistry and represents and warrants to the
 licensee that it is not a competitor of Gaussian, Inc. and that
 it will not use this program in any manner prohibited above.
 ---------------------------------------------------------------
  

 Cite this work as:
 Gaussian 16, Revision C.01,
 M. J. Frisch, G. W. Trucks, H. B. Schlegel, G. E. Scuseria, 
 M. A. Robb, J. R. Cheeseman, G. Scalmani, V. Barone, 
 G. A. Petersson, H. Nakatsuji, X. Li, M. Caricato, A. V. Marenich, 
 J. Bloino, B. G. Janesko, R. Gomperts, B. Mennucci, H. P. Hratchian, 
 J. V. Ortiz, A. F. Izmaylov, J. L. Sonnenberg, D. Williams-Young, 
 F. Ding, F. Lipparini, F. Egidi, J. Goings, B. Peng, A. Petrone, 
 T. Henderson, D. Ranasinghe, V. G. Zakrzewski, J. Gao, N. Rega, 
 G. Zheng, W. Liang, M. Hada, M. Ehara, K. Toyota, R. Fukuda, 
 J. Hasegawa, M. Ishida, T. Nakajima, Y. Honda, O. Kitao, H. Nakai, 
 T. Vreven, K. Throssell, J. A. Montgomery, Jr., J. E. Peralta, 
 F. Ogliaro, M. J. Bearpark, J. J. Heyd, E. N. Brothers, K. N. Kudin, 
 V. N. Staroverov, T. A. Keith, R. Kobayashi, J. Normand, 
 K. Raghavachari, A. P. Rendell, J. C. Burant, S. S. Iyengar, 
 J. Tomasi, M. Cossi, J. M. Millam, M. Klene, C. Adamo, R. Cammi, 
 J. W. Ochterski, R. L. Martin, K. Morokuma, O. Farkas, 
 J. B. Foresman, and D. J. Fox, Gaussian, Inc., Wallingford CT, 2019.
 
 ******************************************
 Gaussian 16:  ES64L-G16RevC.01  3-Jul-2019
                15-Aug-2025 
 ******************************************
 %nprocshared=32
 Will use up to   32 processors via shared memory.
 %mem=35200MB
 -----------------------------
 #T MP2/cc-pVDZ symm=veryloose
 -----------------------------
 --------------------------------
 c1ccc2cc3c4ccccc4c4ccccc4c3cc2c1
 --------------------------------
 Symbolic Z-matrix:
 Charge =  0 Multiplicity = 1
 C                     0.        0.71154   5.14414 
 C                     0.       -0.71154   5.14414 
 C                     0.       -1.40698   3.95618 
 C                     0.       -0.71667   2.70851 
 C                     0.       -1.38847   1.4702 
 C                     0.       -0.7202    0.24696 
 C                     0.       -1.4493   -1.03032 
 C                     0.       -2.8618   -1.07103 
 C                     0.       -3.56174  -2.26811 
 C                     0.       -2.85769  -3.48032 
 C                     0.       -1.47091  -3.46573 
 C                     0.       -0.73539  -2.25893 
 C                     0.        0.73539  -2.25893 
 C                     0.        1.47091  -3.46573 
 C                     0.        2.85769  -3.48032 
 C                     0.        3.56174  -2.26811 
 C                     0.        2.8618   -1.07103 
 C                     0.        1.4493   -1.03032 
 C                     0.        0.7202    0.24696 
 C                     0.        1.38847   1.4702 
 C                     0.        0.71667   2.70851 
 C                     0.        1.40698   3.95618 
 H                     0.        1.2506    6.0961 
 H                     0.       -1.2506    6.0961 
 H                     0.       -2.50148   3.95213 
 H                     0.       -2.47846   1.50087 
 H                     0.       -3.43188  -0.14192 
 H                     0.       -4.65551  -2.26113 
 H                     0.       -3.39363  -4.43381 
 H                     0.       -0.94723  -4.4216 
 H                     0.        0.94723  -4.4216 
 H                     0.        3.39363  -4.43381 
 H                     0.        4.65551  -2.26113 
 H                     0.        3.43188  -0.14192 
 H                     0.        2.47846   1.50087 
 H                     0.        2.50148   3.95213 
 
                    Distance matrix (angstroms):
                    1          2          3          4          5
     1  C    0.000000
     2  C    1.423080   0.000000
     3  C    2.428864   1.376550   0.000000
     4  C    2.823489   2.435637   1.425905   0.000000
     5  C    4.231770   3.735783   2.486048   1.408801   0.000000
     6  C    5.102181   4.897188   3.772263   2.461551   1.393879
     7  C    6.541650   6.218379   4.986677   3.809931   2.501258
     8  C    7.169184   6.576629   5.233488   4.345865   2.937446
     9  C    8.555844   7.941359   6.586716   5.732469   4.324131
    10  C    9.333849   8.887480   7.576681   6.548708   5.163939
    11  C    8.882173   8.643295   7.422185   6.220138   4.936619
    12  C    7.543146   7.403109   6.251289   4.967474   3.785886
    13  C    7.403109   7.543146   6.573987   5.175318   4.291523
    14  C    8.643295   8.882173   7.960341   6.550326   5.704339
    15  C    8.887480   9.333849   8.572569   7.146864   6.522079
    16  C    7.941359   8.555844   7.964296   6.562895   6.203190
    17  C    6.576629   7.169184   6.595104   5.204847   4.952038
    18  C    6.218379   6.541650   5.746608   4.320911   3.782266
    19  C    4.897188   5.102181   4.275885   2.850231   2.437785
    20  C    3.735783   4.231770   3.740939   2.442341   2.776938
    21  C    2.435637   2.823489   2.463042   1.433344   2.442341
    22  C    1.376550   2.428864   2.813960   2.463042   3.740939
    23  H    1.093992   2.180879   3.412040   3.917392   5.325755
    24  H    2.180879   1.093992   2.145629   3.429412   4.627956
    25  H    3.427013   2.150534   1.094511   2.175346   2.720065
    26  H    4.842477   4.049133   2.678926   2.135957   1.090425
    27  H    6.716423   5.944970   4.571064   3.936658   2.602776
    28  H    9.145675   8.390056   7.014839   6.341280   4.959480
    29  H   10.420637   9.946399   8.621994   7.627510   6.235228
    30  H    9.708498   9.568645   8.390385   7.133837   5.908300
    31  H    9.568645   9.708498   8.702270   7.321683   6.337887
    32  H    9.946399  10.420637   9.666326   8.240594   7.597755
    33  H    8.390056   9.145675   8.683825   7.318315   7.102998
    34  H    5.944970   6.716423   6.341052   5.033428   5.082780
    35  H    4.049133   4.842477   4.596220   3.415742   3.867054
    36  H    2.150534   3.427013   3.908465   3.450087   4.614291
                    6          7          8          9         10
     6  C    0.000000
     7  C    1.470725   0.000000
     8  C    2.514673   1.413087   0.000000
     9  C    3.794728   2.448374   1.386691   0.000000
    10  C    4.296684   2.825963   2.409290   1.401833   0.000000
    11  C    3.787830   2.435509   2.769320   2.409531   1.386850
    12  C    2.505937   1.420973   2.435722   2.826370   2.448666
    13  C    2.897967   2.506461   3.788251   4.297135   3.794992
    14  C    4.311039   3.802486   4.950454   5.173190   4.328626
    15  C    5.166615   4.955065   6.206224   6.532878   5.715374
    16  C    4.965945   5.161655   6.534133   7.123480   6.532878
    17  C    3.816785   4.311296   5.723604   6.534133   6.206224
    18  C    2.517573   2.898604   4.311296   5.161655   4.955065
    19  C    1.440398   2.517573   3.816785   4.965945   5.166615
    20  C    2.437785   3.782266   4.952038   6.203190   6.522079
    21  C    2.850231   4.320911   5.204847   6.562895   7.146864
    22  C    4.275885   5.746608   6.595104   7.964296   8.572569
    23  H    6.172237   7.620718   8.263156   9.649807  10.420458
    24  H    5.873140   7.129190   7.346008   8.677643   9.710336
    25  H    4.111108   5.092330   5.036068   6.309955   7.440978
    26  H    2.159576   2.732409   2.600312   3.921568   4.995602
    27  H    2.739419   2.172520   1.090063   2.130156   3.387420
    28  H    4.666609   3.434341   2.152611   1.093795   2.172233
    29  H    5.390445   3.919720   3.404574   2.172215   1.093794
    30  H    4.674079   3.428247   3.858998   3.387205   2.129753
    31  H    4.957398   4.152610   5.072969   4.996831   3.919618
    32  H    6.231634   5.919273   7.102023   7.284740   6.323616
    33  H    5.932017   6.227654   7.610937   8.217256   7.611478
    34  H    4.170246   4.961365   6.361888   7.309675   7.120640
    35  H    3.435653   4.672711   5.927319   7.119639   7.299775
    36  H    4.909936   6.358729   7.348263   8.686430   9.163077
                   11         12         13         14         15
    11  C    0.000000
    12  C    1.413284   0.000000
    13  C    2.514781   1.470770   0.000000
    14  C    2.941828   2.514781   1.413284   0.000000
    15  C    4.328626   3.794992   2.448666   1.386850   0.000000
    16  C    5.173190   4.297135   2.826370   2.409531   1.401833
    17  C    4.950454   3.788251   2.435722   2.769320   2.409290
    18  C    3.802486   2.506461   1.420973   2.435509   2.825963
    19  C    4.311039   2.897967   2.505937   3.787830   4.296684
    20  C    5.704339   4.291523   3.785886   4.936619   5.163939
    21  C    6.550326   5.175318   4.967474   6.220138   6.548708
    22  C    7.960341   6.573987   6.251289   7.422185   7.576681
    23  H    9.941595   8.587823   8.370903   9.564371   9.710336
    24  H    9.564371   8.370903   8.587823   9.941595  10.420458
    25  H    7.489103   6.457268   7.003893   8.414543   9.163077
    26  H    5.067764   4.144198   4.946198   6.345444   7.299775
    27  H    3.859155   3.428234   4.674161   5.923264   7.120640
    28  H    3.404809   3.920129   5.390898   6.243730   7.611478
    29  H    2.152679   3.434588   4.666787   4.959938   6.323616
    30  H    1.089923   2.173022   2.740135   2.600214   3.919618
    31  H    2.600214   2.740135   2.173022   1.089923   2.129753
    32  H    4.959938   4.666787   3.434588   2.152679   1.093794
    33  H    6.243730   5.390898   3.920129   3.404809   2.172233
    34  H    5.923264   4.674161   3.428234   3.859155   3.387420
    35  H    6.345444   4.946198   4.144198   5.067764   4.995602
    36  H    8.414543   7.003893   6.457268   7.489103   7.440978
                   16         17         18         19         20
    16  C    0.000000
    17  C    1.386691   0.000000
    18  C    2.448374   1.413087   0.000000
    19  C    3.794728   2.514673   1.470725   0.000000
    20  C    4.324131   2.937446   2.501258   1.393879   0.000000
    21  C    5.732469   4.345865   3.809931   2.461551   1.408801
    22  C    6.586716   5.233488   4.986677   3.772263   2.486048
    23  H    8.677643   7.346008   7.129190   5.873140   4.627956
    24  H    9.649807   8.263156   7.620718   6.172237   5.325755
    25  H    8.686430   7.348263   6.358729   4.909936   4.614291
    26  H    7.119639   5.927319   4.672711   3.435653   3.867054
    27  H    7.309675   6.361888   4.961365   4.170246   5.082780
    28  H    8.217256   7.610937   6.227654   5.932017   7.102998
    29  H    7.284740   7.102023   5.919273   6.231634   7.597755
    30  H    4.996831   5.072969   4.152610   4.957398   6.337887
    31  H    3.387205   3.858998   3.428247   4.674079   5.908300
    32  H    2.172215   3.404574   3.919720   5.390445   6.235228
    33  H    1.093795   2.152611   3.434341   4.666609   4.959480
    34  H    2.130156   1.090063   2.172520   2.739419   2.602776
    35  H    3.921568   2.600312   2.732409   2.159576   1.090425
    36  H    6.309955   5.036068   5.092330   4.111108   2.720065
                   21         22         23         24         25
    21  C    0.000000
    22  C    1.425905   0.000000
    23  H    3.429412   2.145629   0.000000
    24  H    3.917392   3.412040   2.501206   0.000000
    25  H    3.450087   3.908465   4.321433   2.482204   0.000000
    26  H    3.415742   4.596220   5.917950   4.756453   2.451368
    27  H    5.033428   6.341052   7.799906   6.608395   4.198433
    28  H    7.318315   8.683825  10.233553   9.024235   6.576051
    29  H    8.240594   9.666326  11.508608  10.745777   8.433263
    30  H    7.321683   8.702270  10.744885  10.522077   8.516747
    31  H    7.133837   8.390385  10.522077  10.744885   9.056098
    32  H    7.627510   8.621994  10.745777  11.508608  10.250676
    33  H    6.341280   7.014839   9.024235  10.233553   9.477721
    34  H    3.936658   4.571064   6.608395   7.799906   7.208741
    35  H    2.135957   2.678926   4.756453   5.917950   5.550544
    36  H    2.175346   1.094511   2.482204   4.321433   5.002966
                   26         27         28         29         30
    26  H    0.000000
    27  H    1.899405   0.000000
    28  H    4.346515   2.447112   0.000000
    29  H    6.004828   4.292064   2.512545   0.000000
    30  H    6.117211   4.948648   4.291733   2.446430   0.000000
    31  H    6.841855   6.123090   6.004861   4.340879   1.894462
    32  H    8.348767   8.062747   8.337221   6.787262   4.340879
    33  H    8.065126   8.360437   9.311026   8.337221   6.004861
    34  H    6.134398   6.863750   8.360437   8.062747   6.123090
    35  H    4.956926   6.134398   8.065126   8.348767   6.841855
    36  H    5.550544   7.208741   9.477721  10.250676   9.056098
                   31         32         33         34         35
    31  H    0.000000
    32  H    2.446430   0.000000
    33  H    4.291733   2.512545   0.000000
    34  H    4.948648   4.292064   2.447112   0.000000
    35  H    6.117211   6.004828   4.346515   1.899405   0.000000
    36  H    8.516747   8.433263   6.576051   4.198433   2.451368
                   36
    36  H    0.000000
 Framework group  C2V[SGV(C22H14)]
 Deg. of freedom    35
                         Standard orientation:                         
 ---------------------------------------------------------------------
 Center     Atomic      Atomic             Coordinates (Angstroms)
 Number     Number       Type             X           Y           Z
 ---------------------------------------------------------------------
      1          6           0        0.000000    0.711540    5.144143
      2          6           0       -0.000000   -0.711540    5.144143
      3          6           0        0.000000   -1.406980    3.956181
      4          6           0        0.000000   -0.716672    2.708511
      5          6           0        0.000000   -1.388469    1.470202
      6          6           0        0.000000   -0.720199    0.246963
      7          6           0        0.000000   -1.449302   -1.030316
      8          6           0        0.000000   -2.861802   -1.071034
      9          6           0        0.000000   -3.561740   -2.268113
     10          6           0        0.000000   -2.857687   -3.480320
     11          6           0        0.000000   -1.470914   -3.465729
     12          6           0        0.000000   -0.735385   -2.258928
     13          6           0        0.000000    0.735385   -2.258928
     14          6           0        0.000000    1.470914   -3.465729
     15          6           0        0.000000    2.857687   -3.480320
     16          6           0        0.000000    3.561740   -2.268113
     17          6           0        0.000000    2.861802   -1.071034
     18          6           0        0.000000    1.449302   -1.030316
     19          6           0        0.000000    0.720199    0.246963
     20          6           0        0.000000    1.388469    1.470202
     21          6           0        0.000000    0.716672    2.708511
     22          6           0        0.000000    1.406980    3.956181
     23          1           0        0.000000    1.250603    6.096104
     24          1           0       -0.000000   -1.250603    6.096104
     25          1           0        0.000000   -2.501483    3.952127
     26          1           0        0.000000   -2.478463    1.500867
     27          1           0        0.000000   -3.431875   -0.141919
     28          1           0        0.000000   -4.655513   -2.261133
     29          1           0        0.000000   -3.393631   -4.433813
     30          1           0        0.000000   -0.947231   -4.421599
     31          1           0        0.000000    0.947231   -4.421599
     32          1           0        0.000000    3.393631   -4.433813
     33          1           0        0.000000    4.655513   -2.261133
     34          1           0        0.000000    3.431875   -0.141919
     35          1           0        0.000000    2.478463    1.500867
     36          1           0        0.000000    2.501483    3.952127
 ---------------------------------------------------------------------
 Rotational constants (GHZ):           0.4751447           0.2179909           0.1494328
   378 basis functions,   824 primitive gaussians,   400 cartesian basis functions
    73 alpha electrons       73 beta electrons
       nuclear repulsion energy      1553.0104668310 Hartrees.
 NAtoms=   36 NActive=   36 NUniq=   18 SFac= 4.00D+00 NAtFMM=   60 NAOKFM=F Big=F
 ExpMin= 1.22D-01 ExpMax= 6.67D+03 ExpMxC= 2.28D+02 IAcc=3 IRadAn=         5 AccDes= 0.00D+00
 Harris functional with IExCor=  205 and IRadAn=       5 diagonalized for initial guess.
 HarFok:  IExCor=  205 AccDes= 0.00D+00 IRadAn=         5 IDoV= 1 UseB2=F ITyADJ=14
 ICtDFT=  3500011 ScaDFX=  1.000000  1.000000  1.000000  1.000000
 FoFCou: FMM=F IPFlag=           0 FMFlag=      100000 FMFlg1=           0
         NFxFlg=           0 DoJE=T BraDBF=F KetDBF=T FulRan=T
         wScrn=  0.000000 ICntrl=       500 IOpCl=  0 I1Cent=   200000004 NGrid=           0
         NMat0=    1 NMatS0=      1 NMatT0=    0 NMatD0=    1 NMtDS0=    0 NMtDT0=    0
 Petite list used in FoFCou.
 Initial guess orbital symmetries:
       Occupied  (B2) (A1) (B2) (A1) (B2) (A1) (B2) (A1) (A1) (B2)
                 (B2) (A1) (B2) (A1) (A1) (B2) (A1) (B2) (B2) (A1)
                 (B2) (A1) (A1) (A1) (B2) (A1) (A1) (B2) (A1) (B2)
                 (B2) (A1) (B2) (A1) (A1) (B2) (A1) (B2) (A1) (B2)
                 (A1) (A1) (B2) (A1) (A1) (B2) (B2) (A1) (A1) (B2)
                 (A1) (A1) (B2) (B2) (B2) (B1) (A1) (B2) (B1) (A1)
                 (B2) (A2) (A1) (B2) (B1) (A1) (A2) (B1) (B1) (A2)
                 (A2) (B1) (A2)
       Virtual   (B1) (A2) (B1) (B1) (A2) (A2) (B1) (A2) (A1) (B2)
                 (B1) (A1) (A1) (B2) (A2) (A1) (B2) (A1) (A1) (B2)
                 (B2) (A1) (A2) (B2) (B2) (A1) (A1) (B2) (B2) (A1)
                 (B2) (A1) (A1) (B2) (B2) (A1) (A1) (B2) (A1) (B2)
                 (B2) (A1) (B2) (A1) (B2) (A1) (B1) (B2) (A1) (B1)
                 (B2) (A2) (A1) (B2) (A1) (B1) (A1) (B2) (B2) (A1)
                 (A2) (A1) (B2) (B2) (A1) (B1) (B2) (A1) (B2) (A1)
                 (A1) (B1) (A2) (A1) (A1) (B2) (B1) (A2) (B2) (B1)
                 (B1) (A2) (B2) (A1) (A2) (B2) (A1) (B1) (A1) (B2)
                 (A1) (A2) (B2) (B1) (A2) (B2) (B2) (A1) (A2) (B1)
                 (A1) (B2) (B2) (A1) (A2) (B1) (B2) (B1) (A1) (A2)
                 (B2) (B1) (B2) (B2) (A1) (B1) (A1) (A2) (A1) (B2)
                 (A2) (B2) (A1) (B1) (B1) (A1) (B2) (A1) (B1) (A2)
                 (B2) (A2) (B1) (A1) (B2) (A1) (A2) (B1) (A2) (B2)
                 (A1) (B1) (B2) (A2) (A1) (B1) (A1) (A1) (B2) (B2)
                 (A1) (B2) (B2) (B2) (A1) (A1) (A1) (B1) (B2) (A1)
                 (A2) (A1) (B2) (A2) (A2) (A1) (B2) (B1) (A1) (A1)
                 (B2) (B2) (A1) (B1) (A1) (A2) (B2) (B1) (A2) (A1)
                 (A2) (B1) (B2) (A1) (B2) (A1) (A1) (B2) (A1) (B2)
                 (A1) (A2) (B2) (A1) (B1) (B2) (A1) (B2) (A2) (A1)
                 (B2) (B1) (B1) (A1) (B1) (A2) (A2) (B2) (B1) (A1)
                 (A2) (B2) (A2) (B1) (A1) (B2) (B1) (A1) (B2) (B2)
                 (A1) (A1) (B2) (A2) (B2) (A1) (B1) (A1) (A2) (B2)
                 (B2) (A1) (B2) (B1) (A2) (B2) (A1) (B2) (B1) (B2)
                 (A1) (B2) (A1) (A2) (B2) (A1) (B1) (A1) (B2) (A2)
                 (A2) (B2) (A1) (B2) (A1) (B2) (B1) (A1) (B2) (B1)
                 (A1) (A1) (B2) (A2) (A2) (B2) (A1) (B2) (A2) (A1)
                 (A1) (B2) (A2) (A1) (B2) (B2) (A1) (B2) (A1) (B2)
                 (A1) (B2) (A1) (B2) (B2) (A1) (A1) (B2) (B2) (A1)
                 (A1) (B2) (B2) (A1) (B2) (B2) (A1) (A1) (B2) (B2)
                 (B2) (B2) (A1) (B2) (B2)
 The electronic state of the initial guess is 1-A1.
 Integral accuracy reduced to 1.0D-05 until final iterations.
 Initial convergence to 1.0D-05 achieved.  Increase integral accuracy.
 SCF Done:  E(RHF) =  -841.365006616     A.U. after   17 cycles
            NFock= 17  Conv=0.19D-08     -V/T= 2.0013
 ExpMin= 1.22D-01 ExpMax= 6.67D+03 ExpMxC= 2.28D+02 IAcc=3 IRadAn=         5 AccDes= 0.00D+00
 HarFok:  IExCor=  205 AccDes= 0.00D+00 IRadAn=         5 IDoV=-2 UseB2=F ITyADJ=14
 ICtDFT= 12500011 ScaDFX=  1.000000  1.000000  1.000000  1.000000
 GSVD:  LWork=        -660 too small for GESVD, short by        2750 words or        2750 for optimal perf.
 NROrb=    356 NOA=    51 NOB=    51 NVA=   305 NVB=   305

 **** Warning!!: The largest alpha MO coefficient is  0.21350582D+02

 Estimated scratch disk usage=  1596009417 words.
 Actual    scratch disk usage=  1202541513 words.
 (rs|ai) integrals will be sorted in core.
 ANorm=    0.1452928956D+01
 E2 =    -0.2847029162D+01 EUMP2 =    -0.84421203577830D+03

 **********************************************************************

            Population analysis using the SCF Density.

 **********************************************************************

 Orbital symmetries:
       Occupied  (A1) (B2) (A1) (B2) (A1) (B2) (A1) (B2) (A1) (B2)
                 (A1) (B2) (A1) (B2) (A1) (B2) (B2) (A1) (B2) (A1)
                 (B2) (A1) (A1) (A1) (B2) (A1) (B2) (A1) (A1) (B2)
                 (B2) (A1) (B2) (A1) (A1) (B2) (A1) (A1) (B2) (B2)
                 (A1) (B2) (A1) (A1) (B2) (A1) (B2) (A1) (A1) (B2)
                 (B2) (A1) (B2) (A1) (B2) (B1) (A1) (B2) (B1) (A1)
                 (B2) (A2) (A1) (B2) (A1) (B1) (A2) (B1) (B1) (A2)
                 (A2) (B1) (A2)
       Virtual   (B1) (A2) (B1) (B1) (A2) (B2) (A1) (A1) (B1) (A2)
                 (B2) (A1) (A1) (B2) (B2) (A1) (A1) (B2) (A2) (B2)
                 (A1) (B1) (B2) (A2) (B2) (A1) (A1) (B2) (A1) (A1)
                 (B2) (A2) (A1) (B2) (B2) (A1) (B2) (A1) (A1) (B2)
                 (A1) (A1) (A1) (B2) (B2) (B2) (B1) (A1) (A1) (B1)
                 (B2) (A2) (B2) (A1) (B1) (B2) (A1) (A2) (A1) (B2)
                 (B1) (B2) (A1) (A2) (B2) (B1) (B2) (A1) (A1) (B2)
                 (A1) (B2) (A1) (A1) (A2) (B1) (A1) (B2) (B1) (B2)
                 (A2) (B1) (A1) (B2) (A2) (B1) (A1) (A2) (A1) (B2)
                 (B1) (B2) (A2) (B2) (A1) (B2) (A1) (A1) (A2) (B1)
                 (A1) (B2) (B2) (A2) (B1) (B2) (B1) (A2) (B2) (A1)
                 (B2) (B1) (A1) (B2) (A1) (B2) (B1) (A2) (A1) (B2)
                 (A1) (A2) (B2) (A1) (B1) (B2) (B1) (B2) (A1) (B1)
                 (A2) (A1) (A2) (B2) (A1) (B1) (A1) (B2) (A2) (B1)
                 (B2) (A2) (B1) (A1) (A1) (A2) (B2) (A1) (B1) (B2)
                 (B2) (A1) (B2) (B2) (A1) (A1) (A1) (B2) (B1) (A1)
                 (A2) (A1) (A2) (B2) (B2) (A2) (A1) (B1) (B2) (B2)
                 (A1) (A1) (B1) (A1) (A2) (B1) (A1) (A2) (A2) (B2)
                 (B1) (A1) (B2) (A1) (B2) (A1) (B2) (A1) (A2) (A1)
                 (B1) (B2) (A1) (A2) (B1) (B1) (B2) (A1) (B2) (A1)
                 (B2) (A2) (A1) (A2) (B1) (B2) (A1) (B2) (B2) (A1)
                 (A2) (B1) (B2) (A2) (A1) (B1) (B2) (B1) (A1) (B2)
                 (B2) (A1) (A2) (B1) (A1) (B2) (A1) (B2) (A2) (B2)
                 (A1) (B2) (B1) (A1) (B2) (A2) (A1) (B2) (B1) (A1)
                 (B2) (A1) (B2) (A2) (B2) (B1) (A1) (B2) (A1) (B2)
                 (A2) (A2) (A1) (B2) (A1) (B2) (B1) (A1) (B1) (B2)
                 (A1) (A2) (A2) (A1) (B2) (B2) (A1) (B2) (A2) (A1)
                 (A2) (B2) (A1) (A1) (B2) (B2) (A1) (B2) (A1) (B2)
                 (A1) (A1) (B2) (B2) (B2) (A1) (A1) (B2) (B2) (A1)
                 (B2) (A1) (B2) (A1) (B2) (B2) (A1) (A1) (B2) (B2)
                 (B2) (B2) (A1) (B2) (B2)
 The electronic state is 1-A1.
 Alpha  occ. eigenvalues --  -11.25723 -11.25640 -11.25614 -11.25564 -11.25502
 Alpha  occ. eigenvalues --  -11.25465 -11.25041 -11.24946 -11.24663 -11.24620
 Alpha  occ. eigenvalues --  -11.24529 -11.24487 -11.24486 -11.24477 -11.24475
 Alpha  occ. eigenvalues --  -11.24470 -11.24429 -11.24428 -11.24347 -11.24347
 Alpha  occ. eigenvalues --  -11.24295 -11.24295  -1.19640  -1.16858  -1.14646
 Alpha  occ. eigenvalues --   -1.11688  -1.06245  -1.06224  -1.04270  -1.02717
 Alpha  occ. eigenvalues --   -0.99017  -0.98519  -0.96647  -0.88277  -0.86064
 Alpha  occ. eigenvalues --   -0.85555  -0.82011  -0.80508  -0.80479  -0.77684
 Alpha  occ. eigenvalues --   -0.72526  -0.70716  -0.69504  -0.67205  -0.65851
 Alpha  occ. eigenvalues --   -0.65456  -0.63479  -0.63054  -0.60235  -0.60047
 Alpha  occ. eigenvalues --   -0.59123  -0.58697  -0.58421  -0.58033  -0.56658
 Alpha  occ. eigenvalues --   -0.55716  -0.53516  -0.52567  -0.52121  -0.51237
 Alpha  occ. eigenvalues --   -0.50363  -0.49488  -0.49032  -0.46830  -0.46371
 Alpha  occ. eigenvalues --   -0.45475  -0.39703  -0.38414  -0.36056  -0.34873
 Alpha  occ. eigenvalues --   -0.30390  -0.28469  -0.26422
 Alpha virt. eigenvalues --    0.05924   0.08444   0.09187   0.14197   0.16140
 Alpha virt. eigenvalues --    0.18186   0.18304   0.18575   0.18749   0.19095
 Alpha virt. eigenvalues --    0.20294   0.20434   0.22663   0.23032   0.24351
 Alpha virt. eigenvalues --    0.24853   0.25924   0.26728   0.28486   0.32797
 Alpha virt. eigenvalues --    0.33267   0.33664   0.34571   0.37847   0.38439
 Alpha virt. eigenvalues --    0.39090   0.41002   0.42701   0.43876   0.44559
 Alpha virt. eigenvalues --    0.44986   0.45528   0.45531   0.46180   0.47706
 Alpha virt. eigenvalues --    0.47960   0.49676   0.49938   0.52166   0.57019
 Alpha virt. eigenvalues --    0.57926   0.58182   0.61621   0.62856   0.63273
 Alpha virt. eigenvalues --    0.64509   0.65447   0.66244   0.67074   0.67142
 Alpha virt. eigenvalues --    0.67308   0.67884   0.68071   0.68378   0.69351
 Alpha virt. eigenvalues --    0.69656   0.69911   0.70461   0.71067   0.71409
 Alpha virt. eigenvalues --    0.71424   0.71761   0.72148   0.73525   0.73546
 Alpha virt. eigenvalues --    0.73894   0.73894   0.74413   0.74506   0.74705
 Alpha virt. eigenvalues --    0.75672   0.75936   0.76755   0.77235   0.77308
 Alpha virt. eigenvalues --    0.77602   0.77732   0.79447   0.79908   0.80155
 Alpha virt. eigenvalues --    0.80624   0.81434   0.84836   0.85371   0.85528
 Alpha virt. eigenvalues --    0.86850   0.87789   0.88245   0.88703   0.88781
 Alpha virt. eigenvalues --    0.89601   0.89659   0.90632   0.92148   0.92237
 Alpha virt. eigenvalues --    0.92716   0.93708   0.94940   0.95232   0.96117
 Alpha virt. eigenvalues --    0.96821   0.96856   0.99896   1.00250   1.01343
 Alpha virt. eigenvalues --    1.02905   1.06726   1.09464   1.09670   1.10318
 Alpha virt. eigenvalues --    1.10777   1.10779   1.11587   1.11913   1.12822
 Alpha virt. eigenvalues --    1.13147   1.13413   1.14667   1.15134   1.15621
 Alpha virt. eigenvalues --    1.16436   1.16640   1.17894   1.18153   1.18444
 Alpha virt. eigenvalues --    1.18843   1.19485   1.20498   1.21452   1.22220
 Alpha virt. eigenvalues --    1.22337   1.22419   1.23889   1.24000   1.24718
 Alpha virt. eigenvalues --    1.24966   1.26087   1.26444   1.27789   1.27995
 Alpha virt. eigenvalues --    1.28502   1.29616   1.30550   1.30853   1.32244
 Alpha virt. eigenvalues --    1.33645   1.34600   1.34716   1.34820   1.35569
 Alpha virt. eigenvalues --    1.37266   1.39654   1.41137   1.48077   1.50456
 Alpha virt. eigenvalues --    1.54318   1.55964   1.57343   1.59421   1.59555
 Alpha virt. eigenvalues --    1.61037   1.61589   1.61609   1.62282   1.64970
 Alpha virt. eigenvalues --    1.65964   1.66094   1.67459   1.68491   1.68767
 Alpha virt. eigenvalues --    1.69203   1.71686   1.72398   1.73820   1.73955
 Alpha virt. eigenvalues --    1.74601   1.74639   1.74949   1.75570   1.76526
 Alpha virt. eigenvalues --    1.77502   1.78056   1.80187   1.82646   1.83357
 Alpha virt. eigenvalues --    1.84545   1.85464   1.85789   1.87179   1.87850
 Alpha virt. eigenvalues --    1.87924   1.88553   1.88950   1.90537   1.90653
 Alpha virt. eigenvalues --    1.91159   1.91445   1.91840   1.93105   1.93454
 Alpha virt. eigenvalues --    1.93648   1.93982   1.95179   1.95874   1.96256
 Alpha virt. eigenvalues --    1.96312   1.96914   1.97073   1.99698   2.01242
 Alpha virt. eigenvalues --    2.01739   2.01889   2.03060   2.03365   2.04299
 Alpha virt. eigenvalues --    2.04429   2.05080   2.05988   2.07553   2.08519
 Alpha virt. eigenvalues --    2.09601   2.10518   2.11916   2.13435   2.13670
 Alpha virt. eigenvalues --    2.14086   2.14567   2.14722   2.15314   2.16106
 Alpha virt. eigenvalues --    2.16652   2.16691   2.17250   2.17912   2.18335
 Alpha virt. eigenvalues --    2.19093   2.20698   2.21605   2.23561   2.25088
 Alpha virt. eigenvalues --    2.25450   2.26861   2.27209   2.28424   2.29284
 Alpha virt. eigenvalues --    2.31171   2.31489   2.31829   2.32664   2.35703
 Alpha virt. eigenvalues --    2.36495   2.37006   2.39221   2.39589   2.40162
 Alpha virt. eigenvalues --    2.41922   2.45310   2.46780   2.48578   2.49496
 Alpha virt. eigenvalues --    2.52743   2.55106   2.55505   2.55978   2.56407
 Alpha virt. eigenvalues --    2.57713   2.64736   2.66163   2.68913   2.69789
 Alpha virt. eigenvalues --    2.70038   2.70074   2.71612   2.72659   2.73371
 Alpha virt. eigenvalues --    2.76669   2.77252   2.78325   2.78838   2.80558
 Alpha virt. eigenvalues --    2.82374   2.93033   2.93406   2.94760   2.96618
 Alpha virt. eigenvalues --    2.98417   3.02380   3.03138   3.04314   3.05974
 Alpha virt. eigenvalues --    3.08652   3.09596   3.11381   3.14071   3.18208
 Alpha virt. eigenvalues --    3.23014   3.27405   3.31839   3.32349   3.37674
 Alpha virt. eigenvalues --    3.65206   3.68631   3.81487   3.90248   4.00821
          Condensed to atoms (all electrons):
 Mulliken charges:
               1
     1  C   -0.016165
     2  C   -0.016165
     3  C    0.020421
     4  C   -0.087933
     5  C    0.046188
     6  C   -0.030603
     7  C   -0.037512
     8  C   -0.023259
     9  C    0.012984
    10  C    0.011759
    11  C   -0.021284
    12  C   -0.039183
    13  C   -0.039183
    14  C   -0.021284
    15  C    0.011759
    16  C    0.012984
    17  C   -0.023259
    18  C   -0.037512
    19  C   -0.030603
    20  C    0.046188
    21  C   -0.087933
    22  C    0.020421
    23  H    0.030219
    24  H    0.030219
    25  H    0.016314
    26  H    0.015400
    27  H    0.025438
    28  H    0.025699
    29  H    0.025867
    30  H    0.025651
    31  H    0.025651
    32  H    0.025867
    33  H    0.025699
    34  H    0.025438
    35  H    0.015400
    36  H    0.016314
 Sum of Mulliken charges =  -0.00000
 Mulliken charges with hydrogens summed into heavy atoms:
               1
     1  C    0.014054
     2  C    0.014054
     3  C    0.036735
     4  C   -0.087933
     5  C    0.061588
     6  C   -0.030603
     7  C   -0.037512
     8  C    0.002178
     9  C    0.038683
    10  C    0.037626
    11  C    0.004367
    12  C   -0.039183
    13  C   -0.039183
    14  C    0.004367
    15  C    0.037626
    16  C    0.038683
    17  C    0.002178
    18  C   -0.037512
    19  C   -0.030603
    20  C    0.061588
    21  C   -0.087933
    22  C    0.036735
 Electronic spatial extent (au):  <R**2>=           6868.5024
 Charge=              0.0000 electrons
 Dipole moment (field-independent basis, Debye):
    X=              0.0000    Y=              0.0000    Z=             -0.0134  Tot=              0.0134
 Unable to Open any file for archive entry.
 1\1\GINC-GPU\SP\RMP2-FC\CC-pVDZ\C22H14\XUHJ\15-Aug-2025\0\\#T MP2/cc-p
 VDZ symm=veryloose\\c1ccc2cc3c4ccccc4c4ccccc4c3cc2c1\\0,1\C,0,0.,0.711
 54,5.144143\C,0,0.,-0.71154,5.144143\C,0,0.,-1.40698,3.956181\C,0,0.,-
 0.716672,2.708511\C,0,0.,-1.388469,1.470202\C,0,0.,-0.720199,0.246963\
 C,0,0.,-1.449302,-1.030316\C,0,0.,-2.861802,-1.071034\C,0,0.,-3.56174,
 -2.268113\C,0,0.,-2.857687,-3.48032\C,0,0.,-1.470914,-3.465729\C,0,0.,
 -0.735385,-2.258928\C,0,0.,0.735385,-2.258928\C,0,0.,1.470914,-3.46572
 9\C,0,0.,2.857687,-3.48032\C,0,0.,3.56174,-2.268113\C,0,0.,2.861802,-1
 .071034\C,0,0.,1.449302,-1.030316\C,0,0.,0.720199,0.246963\C,0,0.,1.38
 8469,1.470202\C,0,0.,0.716672,2.708511\C,0,0.,1.40698,3.956181\H,0,0.,
 1.250603,6.096104\H,0,0.,-1.250603,6.096104\H,0,0.,-2.501483,3.952127\
 H,0,0.,-2.478463,1.500867\H,0,0.,-3.431875,-0.141919\H,0,0.,-4.655513,
 -2.261133\H,0,0.,-3.393631,-4.433813\H,0,0.,-0.947231,-4.421599\H,0,0.
 ,0.947231,-4.421599\H,0,0.,3.393631,-4.433813\H,0,0.,4.655513,-2.26113
 3\H,0,0.,3.431875,-0.141919\H,0,0.,2.478463,1.500867\H,0,0.,2.501483,3
 .952127\\Version=ES64L-G16RevC.01\State=1-A1\HF=-841.3650066\MP2=-844.
 2120358\RMSD=1.900e-09\PG=C02V [SGV(C22H14)]\\@
 The archive entry for this job was punched.


 CURIOUSER AND CURIOUSER

                  -- ALICE, IN WONDERLAND
 Job cpu time:       0 days  0 hours 32 minutes 35.0 seconds.
 Elapsed time:       0 days  0 hours  1 minutes  2.1 seconds.
 File lengths (MBytes):  RWF=   9259 Int=      0 D2E=      0 Chk=     10 Scr=      1
 Normal termination of Gaussian 16 at Fri Aug 15 11:46:07 2025.
