 Entering Gaussian System, Link 0=g16
 Initial command:
 /opt/g16/l1.exe "/tmp/Gau-2562551.inp" -scrdir="/tmp/"
 Entering Link 1 = /opt/g16/l1.exe PID=   2562553.
  
 Copyright (c) 1988-2019, Gaussian, Inc.  All Rights Reserved.
  
 This is part of the Gaussian(R) 16 program.  It is based on
 the Gaussian(R) 09 system (copyright 2009, Gaussian, Inc.),
 the Gaussian(R) 03 system (copyright 2003, Gaussian, Inc.),
 the Gaussian(R) 98 system (copyright 1998, Gaussian, Inc.),
 the Gaussian(R) 94 system (copyright 1995, Gaussian, Inc.),
 the Gaussian 92(TM) system (copyright 1992, Gaussian, Inc.),
 the Gaussian 90(TM) system (copyright 1990, Gaussian, Inc.),
 the Gaussian 88(TM) system (copyright 1988, Gaussian, Inc.),
 the Gaussian 86(TM) system (copyright 1986, Carnegie Mellon
 University), and the Gaussian 82(TM) system (copyright 1983,
 Carnegie Mellon University). Gaussian is a federally registered
 trademark of Gaussian, Inc.
  
 This software contains proprietary and confidential information,
 including trade secrets, belonging to Gaussian, Inc.
  
 This software is provided under written license and may be
 used, copied, transmitted, or stored only in accord with that
 written license.
  
 The following legend is applicable only to US Government
 contracts under FAR:
  
                    RESTRICTED RIGHTS LEGEND
  
 Use, reproduction and disclosure by the US Government is
 subject to restrictions as set forth in subparagraphs (a)
 and (c) of the Commercial Computer Software - Restricted
 Rights clause in FAR 52.227-19.
  
 Gaussian, Inc.
 340 Quinnipiac St., Bldg. 40, Wallingford CT 06492
  
  
 ---------------------------------------------------------------
 Warning -- This program may not be used in any manner that
 competes with the business of Gaussian, Inc. or will provide
 assistance to any competitor of Gaussian, Inc.  The licensee
 of this program is prohibited from giving any competitor of
 Gaussian, Inc. access to this program.  By using this program,
 the user acknowledges that Gaussian, Inc. is engaged in the
 business of creating and licensing software in the field of
 computational chemistry and represents and warrants to the
 licensee that it is not a competitor of Gaussian, Inc. and that
 it will not use this program in any manner prohibited above.
 ---------------------------------------------------------------
  

 Cite this work as:
 Gaussian 16, Revision C.01,
 M. J. Frisch, G. W. Trucks, H. B. Schlegel, G. E. Scuseria, 
 M. A. Robb, J. R. Cheeseman, G. Scalmani, V. Barone, 
 G. A. Petersson, H. Nakatsuji, X. Li, M. Caricato, A. V. Marenich, 
 J. Bloino, B. G. Janesko, R. Gomperts, B. Mennucci, H. P. Hratchian, 
 J. V. Ortiz, A. F. Izmaylov, J. L. Sonnenberg, D. Williams-Young, 
 F. Ding, F. Lipparini, F. Egidi, J. Goings, B. Peng, A. Petrone, 
 T. Henderson, D. Ranasinghe, V. G. Zakrzewski, J. Gao, N. Rega, 
 G. Zheng, W. Liang, M. Hada, M. Ehara, K. Toyota, R. Fukuda, 
 J. Hasegawa, M. Ishida, T. Nakajima, Y. Honda, O. Kitao, H. Nakai, 
 T. Vreven, K. Throssell, J. A. Montgomery, Jr., J. E. Peralta, 
 F. Ogliaro, M. J. Bearpark, J. J. Heyd, E. N. Brothers, K. N. Kudin, 
 V. N. Staroverov, T. A. Keith, R. Kobayashi, J. Normand, 
 K. Raghavachari, A. P. Rendell, J. C. Burant, S. S. Iyengar, 
 J. Tomasi, M. Cossi, J. M. Millam, M. Klene, C. Adamo, R. Cammi, 
 J. W. Ochterski, R. L. Martin, K. Morokuma, O. Farkas, 
 J. B. Foresman, and D. J. Fox, Gaussian, Inc., Wallingford CT, 2019.
 
 ******************************************
 Gaussian 16:  ES64L-G16RevC.01  3-Jul-2019
                11-Oct-2024 
 ******************************************
 %nprocshared=8
 Will use up to    8 processors via shared memory.
 %mem=11200MB
 -----------------------------
 #T MP2/cc-pVDZ symm=veryloose
 -----------------------------
 --------------------------------------------------
 c1cc2cc3cccc4c5cccc6cc7cccc8c(c1)c2c(c34)c(c78)c65
 --------------------------------------------------
 Symbolic Z-matrix:
 Charge =  0 Multiplicity = 1
 C                     0.       -3.65254  -2.89519 
 C                     0.       -2.46143  -3.58187 
 C                     0.       -1.22377  -2.87478 
 C                     0.        0.       -3.55655 
 C                     0.        1.22377  -2.87478 
 C                     0.        2.46143  -3.58187 
 C                     0.        3.65254  -2.89519 
 C                     0.        3.66377  -1.48278 
 C                     0.        2.48892  -0.73603 
 C                     0.        2.48892   0.73603 
 C                     0.        3.66377   1.48278 
 C                     0.        3.65254   2.89519 
 C                     0.        2.46143   3.58187 
 C                     0.        1.22377   2.87478 
 C                     0.        0.        3.55655 
 C                     0.       -1.22377   2.87478 
 C                     0.       -2.46143   3.58187 
 C                     0.       -3.65254   2.89519 
 C                     0.       -3.66377   1.48278 
 C                     0.       -2.48892   0.73603 
 C                     0.       -2.48892  -0.73603 
 C                     0.       -3.66377  -1.48278 
 C                     0.       -1.23107  -1.43252 
 C                     0.        0.       -0.72626 
 C                     0.        1.23107  -1.43252 
 C                     0.        0.        0.72626 
 C                     0.       -1.23107   1.43252 
 C                     0.        1.23107   1.43252 
 H                     0.       -4.60286  -3.43696 
 H                     0.       -2.44198  -4.67552 
 H                     0.        0.       -4.65064 
 H                     0.        2.44198  -4.67552 
 H                     0.        4.60286  -3.43696 
 H                     0.        4.63159  -0.97998 
 H                     0.        4.63159   0.97998 
 H                     0.        4.60286   3.43696 
 H                     0.        2.44198   4.67552 
 H                     0.        0.        4.65064 
 H                     0.       -2.44198   4.67552 
 H                     0.       -4.60286   3.43696 
 H                     0.       -4.63159   0.97998 
 H                     0.       -4.63159  -0.97998 
 
                    Distance matrix (angstroms):
                    1          2          3          4          5
     1  C    0.000000
     2  C    1.374870   0.000000
     3  C    2.428853   1.425401   0.000000
     4  C    3.711929   2.461559   1.400860   0.000000
     5  C    4.876348   3.752419   2.447538   1.400860   0.000000
     6  C    6.152406   4.922858   3.752419   2.461559   1.425401
     7  C    7.305072   6.152406   4.876348   3.711929   2.428853
     8  C    7.451389   6.474891   5.081899   4.209953   2.809140
     9  C    6.509949   5.710057   4.284662   3.761654   2.484931
    10  C    7.134647   6.568878   5.178998   4.961946   3.826038
    11  C    8.526131   7.947874   6.548007   6.230410   4.994193
    12  C    9.321613   8.906894   7.554527   7.413895   6.260307
    13  C    8.906894   8.692157   7.434312   7.550864   6.574201
    14  C    7.554527   7.434312   6.248836   6.546724   5.749566
    15  C    7.413895   7.550864   6.546724   7.113090   6.546724
    16  C    6.260307   6.574201   5.749566   6.546724   6.248836
    17  C    6.585661   7.163732   6.574201   7.550864   7.434312
    18  C    5.790370   6.585661   6.260307   7.413895   7.554527
    19  C    4.377980   5.205408   4.994193   6.230410   6.548007
    20  C    3.813097   4.317982   3.826038   4.961946   5.178998
    21  C    2.452746   2.845971   2.484931   3.761654   4.284662
    22  C    1.412449   2.419045   2.809140   4.209953   5.081899
    23  C    2.828942   2.476590   1.442286   2.455001   2.847167
    24  C    4.247969   3.770026   2.472599   2.830281   2.472599
    25  C    5.097940   4.272499   2.847167   2.455001   1.442286
    26  C    5.143531   4.961715   3.803308   4.282809   3.803308
    27  C    4.959082   5.163120   4.307304   5.138701   4.957725
    28  C    6.525226   6.227243   4.957725   5.138701   4.307304
    29  H    1.093906   2.146324   3.425533   4.604409   5.853683
    30  H    2.152915   1.093827   2.174095   2.686143   4.084159
    31  H    4.052487   2.683452   2.156685   1.094098   2.156685
    32  H    6.349228   5.023891   4.084159   2.686143   2.174095
    33  H    8.273151   7.065771   5.853683   4.604409   3.425533
    34  H    8.502628   7.555174   6.154303   5.300025   3.899164
    35  H    9.145688   8.433346   7.010307   6.483184   5.145137
    36  H   10.404210   9.958317   8.589976   8.372301   7.159354
    37  H    9.718985   9.603532   8.393139   8.586626   7.647948
    38  H    8.383349   8.592604   7.624280   8.207188   7.624280
    39  H    7.666878   8.257409   7.647948   8.586626   8.393139
    40  H    6.403061   7.338232   7.159354   8.372301   8.589976
    41  H    3.996932   5.051737   5.145137   6.483184   7.010307
    42  H    2.150939   3.388123   3.899164   5.300025   6.154303
                    6          7          8          9         10
     6  C    0.000000
     7  C    1.374870   0.000000
     8  C    2.419045   1.412449   0.000000
     9  C    2.845971   2.452746   1.392088   0.000000
    10  C    4.317982   3.813097   2.510654   1.472056   0.000000
    11  C    5.205408   4.377980   2.965562   2.510654   1.392088
    12  C    6.585661   5.790370   4.377980   3.813097   2.452746
    13  C    7.163732   6.585661   5.205408   4.317982   2.845971
    14  C    6.574201   6.260307   4.994193   3.826038   2.484931
    15  C    7.550864   7.413895   6.230410   4.961946   3.761654
    16  C    7.434312   7.554527   6.548007   5.178998   4.284662
    17  C    8.692157   8.906894   7.947874   6.568878   5.710057
    18  C    8.906894   9.321613   8.526131   7.134647   6.509949
    19  C    7.947874   8.526131   7.904895   6.540542   6.197840
    20  C    6.568878   7.134647   6.540542   5.190938   4.977840
    21  C    5.710057   6.509949   6.197840   4.977840   5.190938
    22  C    6.474891   7.451389   7.327538   6.197840   6.540542
    23  C    4.272499   5.097940   4.895095   3.784627   4.305913
    24  C    3.770026   4.247969   3.741059   2.488939   2.886697
    25  C    2.476590   2.828942   2.433220   1.437806   2.506944
    26  C    4.961715   5.143531   4.278210   2.886697   2.488939
    27  C    6.227243   6.525226   5.697226   4.305913   3.784627
    28  C    5.163120   4.959082   3.796970   2.506944   1.437806
    29  H    7.065771   8.273151   8.494464   7.588698   8.228434
    30  H    5.023891   6.349228   6.890118   6.311367   7.321107
    31  H    2.683452   4.052487   4.843403   4.638850   5.933881
    32  H    1.093827   2.152915   3.418531   3.939772   5.411752
    33  H    2.146324   1.093906   2.168112   3.429835   4.677881
    34  H    3.388123   2.150939   1.090631   2.156509   2.745125
    35  H    5.051737   3.996932   2.646106   2.745125   2.156509
    36  H    7.338232   6.403061   5.008568   4.677881   3.429835
    37  H    8.257409   7.666878   6.278331   5.411752   3.939772
    38  H    8.592604   8.383349   7.144375   5.933881   4.638850
    39  H    9.603532   9.718985   8.672071   7.321107   6.311367
    40  H    9.958317  10.404210   9.619821   8.228434   7.588698
    41  H    8.433346   9.145688   8.653214   7.324363   7.124684
    42  H    7.555174   8.502628   8.310579   7.124684   7.324363
                   11         12         13         14         15
    11  C    0.000000
    12  C    1.412449   0.000000
    13  C    2.419045   1.374870   0.000000
    14  C    2.809140   2.428853   1.425401   0.000000
    15  C    4.209953   3.711929   2.461559   1.400860   0.000000
    16  C    5.081899   4.876348   3.752419   2.447538   1.400860
    17  C    6.474891   6.152406   4.922858   3.752419   2.461559
    18  C    7.451389   7.305072   6.152406   4.876348   3.711929
    19  C    7.327538   7.451389   6.474891   5.081899   4.209953
    20  C    6.197840   6.509949   5.710057   4.284662   3.761654
    21  C    6.540542   7.134647   6.568878   5.178998   4.961946
    22  C    7.904895   8.526131   7.947874   6.548007   6.230410
    23  C    5.697226   6.525226   6.227243   4.957725   5.138701
    24  C    4.278210   5.143531   4.961715   3.803308   4.282809
    25  C    3.796970   4.959082   5.163120   4.307304   5.138701
    26  C    3.741059   4.247969   3.770026   2.472599   2.830281
    27  C    4.895095   5.097940   4.272499   2.847167   2.455001
    28  C    2.433220   2.828942   2.476590   1.442286   2.455001
    29  H    9.619821  10.404210   9.958317   8.589976   8.372301
    30  H    8.672071   9.718985   9.603532   8.393139   8.586626
    31  H    7.144375   8.383349   8.592604   7.624280   8.207188
    32  H    6.278331   7.666878   8.257409   7.647948   8.586626
    33  H    5.008568   6.403061   7.338232   7.159354   8.372301
    34  H    2.646106   3.996932   5.051737   5.145137   6.483184
    35  H    1.090631   2.150939   3.388123   3.899164   5.300025
    36  H    2.168112   1.093906   2.146324   3.425533   4.604409
    37  H    3.418531   2.152915   1.093827   2.174095   2.686143
    38  H    4.843403   4.052487   2.683452   2.156685   1.094098
    39  H    6.890118   6.349228   5.023891   4.084159   2.686143
    40  H    8.494464   8.273151   7.065771   5.853683   4.604409
    41  H    8.310579   8.502628   7.555174   6.154303   5.300025
    42  H    8.653214   9.145688   8.433346   7.010307   6.483184
                   16         17         18         19         20
    16  C    0.000000
    17  C    1.425401   0.000000
    18  C    2.428853   1.374870   0.000000
    19  C    2.809140   2.419045   1.412449   0.000000
    20  C    2.484931   2.845971   2.452746   1.392088   0.000000
    21  C    3.826038   4.317982   3.813097   2.510654   1.472056
    22  C    4.994193   5.205408   4.377980   2.965562   2.510654
    23  C    4.307304   5.163120   4.959082   3.796970   2.506944
    24  C    3.803308   4.961715   5.143531   4.278210   2.886697
    25  C    4.957725   6.227243   6.525226   5.697226   4.305913
    26  C    2.472599   3.770026   4.247969   3.741059   2.488939
    27  C    1.442286   2.476590   2.828942   2.433220   1.437806
    28  C    2.847167   4.272499   5.097940   4.895095   3.784627
    29  H    7.159354   7.338232   6.403061   5.008568   4.677881
    30  H    7.647948   8.257409   7.666878   6.278331   5.411752
    31  H    7.624280   8.592604   8.383349   7.144375   5.933881
    32  H    8.393139   9.603532   9.718985   8.672071   7.321107
    33  H    8.589976   9.958317  10.404210   9.619821   8.228434
    34  H    7.010307   8.433346   9.145688   8.653214   7.324363
    35  H    6.154303   7.555174   8.502628   8.310579   7.124684
    36  H    5.853683   7.065771   8.273151   8.494464   7.588698
    37  H    4.084159   5.023891   6.349228   6.890118   6.311367
    38  H    2.156685   2.683452   4.052487   4.843403   4.638850
    39  H    2.174095   1.093827   2.152915   3.418531   3.939772
    40  H    3.425533   2.146324   1.093906   2.168112   3.429835
    41  H    3.899164   3.388123   2.150939   1.090631   2.156509
    42  H    5.145137   5.051737   3.996932   2.646106   2.745125
                   21         22         23         24         25
    21  C    0.000000
    22  C    1.392088   0.000000
    23  C    1.437806   2.433220   0.000000
    24  C    2.488939   3.741059   1.419267   0.000000
    25  C    3.784627   4.895095   2.462136   1.419267   0.000000
    26  C    2.886697   4.278210   2.485127   1.452528   2.485127
    27  C    2.506944   3.796970   2.865030   2.485127   3.777633
    28  C    4.305913   5.697226   3.777633   2.485127   2.865030
    29  H    3.429835   2.168112   3.922596   5.341738   6.168669
    30  H    3.939772   3.418531   3.461703   4.643262   4.899831
    31  H    4.638850   4.843403   3.445559   3.924379   3.445559
    32  H    6.311367   6.890118   4.899831   4.643262   3.461703
    33  H    7.588698   8.494464   6.168669   5.341738   3.922596
    34  H    7.124684   8.310579   5.880093   4.638530   3.430497
    35  H    7.324363   8.653214   6.339626   4.935876   4.169373
    36  H    8.228434   9.619821   7.599110   6.206346   5.922901
    37  H    7.321107   8.672071   7.127367   5.928113   6.226909
    38  H    5.933881   7.144375   6.206476   5.376907   6.206476
    39  H    5.411752   6.278331   6.226909   5.928113   7.127367
    40  H    4.677881   5.008568   5.922901   6.206346   7.599110
    41  H    2.745125   2.646106   4.169373   4.935876   6.339626
    42  H    2.156509   1.090631   3.430497   4.638530   5.880093
                   26         27         28         29         30
    26  C    0.000000
    27  C    1.419267   0.000000
    28  C    1.419267   2.462136   0.000000
    29  H    6.206346   5.922901   7.599110   0.000000
    30  H    5.928113   6.226909   7.127367   2.490667   0.000000
    31  H    5.376907   6.206476   6.206476   4.760179   2.442105
    32  H    5.928113   7.127367   6.226909   7.152881   4.883956
    33  H    6.206346   7.599110   5.922901   9.205712   7.152881
    34  H    4.935876   6.339626   4.169373   9.555714   7.980746
    35  H    4.638530   5.880093   3.430497  10.236421   9.056491
    36  H    5.341738   6.168669   3.922596  11.488950  10.744396
    37  H    4.643262   4.899831   3.461703  10.744396  10.549643
    38  H    3.924379   3.445559   3.445559   9.305678   9.640569
    39  H    4.643262   3.461703   4.899831   8.395341   9.351040
    40  H    5.341738   3.922596   6.168669   6.873924   8.395341
    41  H    4.638530   3.430497   5.880093   4.417038   6.064577
    42  H    4.935876   4.169373   6.339626   2.457147   4.295507
                   31         32         33         34         35
    31  H    0.000000
    32  H    2.442105   0.000000
    33  H    4.760179   2.490667   0.000000
    34  H    5.909766   4.295507   2.457147   0.000000
    35  H    7.290784   6.064577   4.417038   1.959966   0.000000
    36  H    9.305678   8.395341   6.873924   4.417038   2.457147
    37  H    9.640569   9.351040   8.395341   6.064577   4.295507
    38  H    9.301286   9.640569   9.305678   7.290784   5.909766
    39  H    9.640569  10.549643  10.744396   9.056491   7.980746
    40  H    9.305678  10.744396  11.488950  10.236421   9.555714
    41  H    7.290784   9.056491  10.236421   9.468253   9.263172
    42  H    5.909766   7.980746   9.555714   9.263172   9.468253
                   36         37         38         39         40
    36  H    0.000000
    37  H    2.490667   0.000000
    38  H    4.760179   2.442105   0.000000
    39  H    7.152881   4.883956   2.442105   0.000000
    40  H    9.205712   7.152881   4.760179   2.490667   0.000000
    41  H    9.555714   7.980746   5.909766   4.295507   2.457147
    42  H   10.236421   9.056491   7.290784   6.064577   4.417038
                   41         42
    41  H    0.000000
    42  H    1.959966   0.000000
 Framework group  D2H[C2"(HCC.CCH),SG(C24H12)]
 Deg. of freedom    21
                         Standard orientation:                         
 ---------------------------------------------------------------------
 Center     Atomic      Atomic             Coordinates (Angstroms)
 Number     Number       Type             X           Y           Z
 ---------------------------------------------------------------------
      1          6           0        0.000000    3.652536    2.895185
      2          6           0        0.000000    2.461429    3.581866
      3          6           0        0.000000    1.223769    2.874783
      4          6           0        0.000000    0.000000    3.556545
      5          6           0       -0.000000   -1.223769    2.874783
      6          6           0       -0.000000   -2.461429    3.581866
      7          6           0       -0.000000   -3.652536    2.895185
      8          6           0        0.000000   -3.663769    1.482781
      9          6           0        0.000000   -2.488920    0.736028
     10          6           0        0.000000   -2.488920   -0.736028
     11          6           0        0.000000   -3.663769   -1.482781
     12          6           0       -0.000000   -3.652536   -2.895185
     13          6           0       -0.000000   -2.461429   -3.581866
     14          6           0       -0.000000   -1.223769   -2.874783
     15          6           0        0.000000    0.000000   -3.556545
     16          6           0        0.000000    1.223769   -2.874783
     17          6           0        0.000000    2.461429   -3.581866
     18          6           0        0.000000    3.652536   -2.895185
     19          6           0        0.000000    3.663769   -1.482781
     20          6           0        0.000000    2.488920   -0.736028
     21          6           0        0.000000    2.488920    0.736028
     22          6           0        0.000000    3.663769    1.482781
     23          6           0        0.000000    1.231068    1.432515
     24          6           0        0.000000    0.000000    0.726264
     25          6           0       -0.000000   -1.231068    1.432515
     26          6           0        0.000000    0.000000   -0.726264
     27          6           0        0.000000    1.231068   -1.432515
     28          6           0       -0.000000   -1.231068   -1.432515
     29          1           0        0.000000    4.602856    3.436962
     30          1           0        0.000000    2.441978    4.675520
     31          1           0        0.000000    0.000000    4.650643
     32          1           0       -0.000000   -2.441978    4.675520
     33          1           0       -0.000000   -4.602856    3.436962
     34          1           0        0.000000   -4.631586    0.979983
     35          1           0        0.000000   -4.631586   -0.979983
     36          1           0       -0.000000   -4.602856   -3.436962
     37          1           0       -0.000000   -2.441978   -4.675520
     38          1           0        0.000000    0.000000   -4.650643
     39          1           0        0.000000    2.441978   -4.675520
     40          1           0        0.000000    4.602856   -3.436962
     41          1           0        0.000000    4.631586   -0.979983
     42          1           0        0.000000    4.631586    0.979983
 ---------------------------------------------------------------------
 Rotational constants (GHZ):           0.2356796           0.2283270           0.1159725
   462 basis functions,  1022 primitive gaussians,   490 cartesian basis functions
    91 alpha electrons       91 beta electrons
       nuclear repulsion energy      2315.2631198518 Hartrees.
 NAtoms=   42 NActive=   42 NUniq=   12 SFac= 4.00D+00 NAtFMM=   60 NAOKFM=F Big=F
 ExpMin= 1.22D-01 ExpMax= 6.67D+03 ExpMxC= 2.28D+02 IAcc=3 IRadAn=         5 AccDes= 0.00D+00
 Harris functional with IExCor=  205 and IRadAn=       5 diagonalized for initial guess.
 HarFok:  IExCor=  205 AccDes= 0.00D+00 IRadAn=         5 IDoV= 1 UseB2=F ITyADJ=14
 ICtDFT=  3500011 ScaDFX=  1.000000  1.000000  1.000000  1.000000
 FoFCou: FMM=F IPFlag=           0 FMFlag=      100000 FMFlg1=           0
         NFxFlg=           0 DoJE=T BraDBF=F KetDBF=T FulRan=T
         wScrn=  0.000000 ICntrl=       500 IOpCl=  0 I1Cent=   200000004 NGrid=           0
         NMat0=    1 NMatS0=      1 NMatT0=    0 NMatD0=    1 NMtDS0=    0 NMtDT0=    0
 Petite list used in FoFCou.
 Initial guess orbital symmetries:
       Occupied  (B3G) (B1U) (B2U) (AG) (B1U) (B3G) (AG) (B2U)
                 (B1U) (B3G) (AG) (B2U) (B1U) (AG) (B1U) (AG) (B3G)
                 (B2U) (AG) (B1U) (AG) (B2U) (B3G) (B1U) (B1U)
                 (B3G) (AG) (B2U) (AG) (B1U) (B2U) (B3G) (AG) (AG)
                 (B1U) (B2U) (B1U) (B2U) (AG) (B3G) (B3G) (B1U)
                 (AG) (B2U) (B1U) (AG) (B2U) (B3G) (B3G) (AG) (B1U)
                 (B2U) (AG) (B1U) (B3G) (B2U) (AG) (B1U) (B2U)
                 (B1U) (B3G) (AG) (B3G) (B2U) (B2U) (AG) (B3G)
                 (B3U) (AG) (B1U) (AG) (B2G) (B1G) (B3G) (B1U)
                 (B2U) (B1U) (B2U) (AU) (B3G) (AG) (B3U) (B3U)
                 (B2G) (B1G) (B2G) (B1G) (AU) (B3U) (AU) (B2G)
       Virtual   (B3U) (B1G) (B2G) (B1G) (AU) (B3U) (AU) (B3U)
                 (B2G) (B2G) (B1G) (AG) (B2U) (B1U) (B3G) (AG)
                 (B1U) (AU) (B3U) (B2U) (B1U) (B2U) (AG) (B3G)
                 (AG) (B2U) (B3G) (B1U) (AG) (AG) (B2G) (B2U) (B3G)
                 (B1U) (B1U) (AG) (B2U) (B3G) (B2U) (B1U) (AG)
                 (B1U) (B2U) (B3G) (AG) (B3G) (B1U) (B3G) (B1U)
                 (B2U) (B3G) (AG) (B2U) (AG) (B1U) (B3U) (B3G)
                 (B1U) (B2G) (B1G) (AG) (B2U) (B3G) (B1U) (B2U)
                 (AU) (B1U) (B3U) (AG) (B3G) (AG) (B1U) (B2U) (B3U)
                 (AG) (B2U) (AG) (B1U) (B3G) (B3G) (B2G) (B2U)
                 (B1G) (AG) (B2G) (B2U) (B1U) (AG) (B1G) (B1U)
                 (B3U) (AG) (B2U) (B3G) (AU) (B3U) (B1G) (AU) (B3G)
                 (B1U) (B2G) (AG) (B2U) (B3U) (B2G) (AG) (B1G)
                 (B1U) (B2U) (AU) (AG) (B1U) (B3G) (B3U) (B3G)
                 (B1U) (B2G) (B2U) (AU) (AG) (B3G) (B2G) (B1U)
                 (B1G) (B3U) (B1G) (B3G) (AU) (B1U) (B3U) (B3G)
                 (AG) (B2U) (B1U) (AG) (AU) (B1G) (B3G) (B2G) (B2U)
                 (B3U) (B1U) (AG) (B2U) (B3G) (B2U) (AU) (B2G)
                 (B3U) (AG) (B2G) (B1G) (B1U) (B1G) (AG) (AU) (B2U)
                 (B3U) (B2G) (B1U) (B3U) (B3G) (AG) (B1U) (B3G)
                 (B2U) (AU) (B1G) (B1G) (B2G) (B1U) (B2U) (AG)
                 (AU) (B3U) (B3G) (B2U) (AG) (B3G) (AG) (B1U) (B2U)
                 (B3G) (AG) (B1U) (B3G) (B1U) (B2U) (B2G) (AG)
                 (B1U) (B3U) (B1G) (AU) (B2G) (AG) (B3G) (B3U)
                 (B2U) (B1U) (B2U) (AG) (AU) (AG) (B2G) (B2U) (B3G)
                 (B1U) (B3G) (AG) (B1G) (B2U) (B1U) (B3U) (AG)
                 (B1G) (B2G) (AU) (B2U) (B3G) (B3G) (B1U) (AG)
                 (B3U) (B2U) (B2G) (AG) (B2U) (B1U) (B3G) (B1G)
                 (B1U) (B3G) (B2U) (AG) (B1U) (B2G) (B3U) (B3G)
                 (B1U) (B2U) (AG) (AU) (AG) (B2G) (B3G) (B2U) (B1G)
                 (B3U) (B2U) (AU) (B1U) (B3U) (AG) (AU) (B1G) (B3G)
                 (AU) (B1U) (B1G) (AG) (B2U) (B2G) (B3G) (B1U)
                 (AG) (B3U) (B2U) (B1U) (AG) (B2G) (B3G) (B1G)
                 (AG) (B1U) (B3G) (AU) (B3U) (B2U) (B1U) (B3G)
                 (B2G) (B3G) (B2U) (B1U) (B3G) (B1U) (B3U) (AG)
                 (B3G) (B2G) (B2U) (B1G) (B1U) (AG) (AU) (B1U)
                 (B2U) (B3G) (B2U) (AG) (B2G) (AU) (B2U) (AG) (B3U)
                 (B1G) (B3G) (B1U) (B1U) (AG) (B2U) (B3G) (AG)
                 (B1U) (B2U) (AU) (B3U) (B2U) (B2G) (B3G) (B1G)
                 (B1U) (AG) (B3G) (AG) (B2U) (B2U) (B3G) (B1U)
                 (B1U) (B2G) (AU) (AG) (B3G) (B1U) (B2U) (AG) (B3G)
                 (B1U) (AG) (B2U) (B3G) (AG) (B2U) (B1U) (AG) (B3G)
                 (B1U) (AG) (B3G) (B2U) (B2U) (AG) (B1U) (B2U)
                 (B3G) (B1U) (B1U) (AG) (B3G) (B1U) (B3G) (B1U)
                 (AG) (B1U) (B2U) (B3G) (AG) (B1U) (B3G)
 The electronic state of the initial guess is 1-AG.
 Integral accuracy reduced to 1.0D-05 until final iterations.
 Initial convergence to 1.0D-05 achieved.  Increase integral accuracy.
 SCF Done:  E(RHF) =  -1068.61746498     A.U. after   23 cycles
            NFock= 23  Conv=0.69D-08     -V/T= 2.0011
 ExpMin= 1.22D-01 ExpMax= 6.67D+03 ExpMxC= 2.28D+02 IAcc=3 IRadAn=         5 AccDes= 0.00D+00
 HarFok:  IExCor=  205 AccDes= 0.00D+00 IRadAn=         5 IDoV=-2 UseB2=F ITyADJ=14
 ICtDFT= 12500011 ScaDFX=  1.000000  1.000000  1.000000  1.000000
 GSVD:  LWork=       -1008 too small for GESVD, short by        4340 words or        4340 for optimal perf.
 NROrb=    434 NOA=    63 NOB=    63 NVA=   371 NVB=   371

 **** Warning!!: The largest alpha MO coefficient is  0.32565940D+02

 Estimated scratch disk usage=  1825015255 words.
 Actual    scratch disk usage=  1374931415 words.
 (rs|ai) integrals will be sorted in core.
 ANorm=    0.1559683745D+01
 E2 =    -0.3612926114D+01 EUMP2 =    -0.10722303910893D+04

 **********************************************************************

            Population analysis using the SCF Density.

 **********************************************************************

 Orbital symmetries:
       Occupied  (AG) (B2U) (AG) (B1U) (B3G) (B1U) (B2U) (B3G)
                 (AG) (B1U) (AG) (B1U) (B3G) (B2U) (B1U) (B3G)
                 (AG) (B2U) (B1U) (B3G) (AG) (B2U) (B1U) (AG) (B3G)
                 (B2U) (B1U) (AG) (AG) (B1U) (B2U) (B3G) (AG) (AG)
                 (B1U) (B2U) (B1U) (B2U) (AG) (B3G) (B3G) (B1U)
                 (AG) (B2U) (B1U) (AG) (B2U) (B3G) (B3G) (AG) (B1U)
                 (B2U) (B1U) (AG) (B3G) (B2U) (AG) (B1U) (B2U)
                 (AG) (B1U) (B3G) (B3G) (B2U) (B2U) (AG) (B3U)
                 (AG) (B3G) (AG) (B1U) (B2G) (B1U) (B1G) (B3G)
                 (B1U) (B2U) (B2U) (AU) (B3G) (AG) (B3U) (B3U)
                 (B2G) (B1G) (B2G) (B1G) (AU) (B3U) (AU) (B2G)
       Virtual   (B3U) (B1G) (B1G) (B2G) (AU) (B3U) (AG) (B2U)
                 (B1U) (AU) (B3G) (B3U) (AG) (B1U) (B2U) (AG) (B3G)
                 (B2G) (B2U) (B2G) (B1U) (AG) (B1G) (B3G) (B1U)
                 (B2U) (B3U) (B3G) (AG) (AU) (B1U) (AG) (B2U) (B3G)
                 (B1U) (B2U) (AG) (B1U) (AG) (B2U) (B2U) (B1U)
                 (B2G) (AG) (B3G) (B1U) (B3G) (B3G) (B2U) (AG)
                 (B1U) (AG) (B3G) (B2U) (AG) (B1U) (B3U) (B1G)
                 (B2U) (AG) (B1U) (B2G) (B3G) (AG) (B1U) (AU) (B3U)
                 (B3G) (B1U) (B3U) (B3G) (B2U) (AG) (B1G) (B1U)
                 (B2G) (B2U) (B3G) (B2U) (B1U) (AG) (B2U) (B2G)
                 (B3G) (AG) (B1G) (B2U) (B3U) (B1U) (AU) (B1U)
                 (AG) (B2U) (AG) (AU) (B3U) (B1G) (B2G) (B3G) (B3U)
                 (B1U) (B2G) (AG) (B3G) (B1G) (AU) (B1U) (B2U)
                 (B3U) (B2U) (AG) (B3G) (B3G) (B1U) (AG) (B2G)
                 (AG) (AU) (B2U) (B2G) (B1U) (B1G) (B1U) (B3U)
                 (B3G) (B1G) (AU) (B3G) (B3U) (B3G) (B1U) (AG)
                 (B2U) (AU) (B1G) (B1U) (B3U) (AG) (B2U) (B2G)
                 (B2U) (B2U) (B1U) (B3G) (AG) (AU) (B3G) (B3U)
                 (B1U) (B2G) (B2G) (B1G) (AG) (B3G) (B1G) (AG)
                 (AG) (B2U) (AU) (B3U) (B1U) (B2G) (B2U) (B1U)
                 (B3U) (B3G) (B1U) (AU) (B1G) (AG) (B1G) (B2U)
                 (B2G) (B2U) (B3G) (AG) (AU) (B3U) (B3G) (AG) (B1U)
                 (B2U) (B1U) (AG) (B3G) (B1U) (B3G) (B2U) (AG)
                 (B1U) (B2G) (AU) (B3U) (B2G) (B1G) (AG) (B3U)
                 (B1U) (B3G) (B2U) (B2G) (AG) (B2U) (B3G) (AG)
                 (AU) (B2U) (B1U) (B3U) (B1G) (AG) (B1G) (B2U)
                 (AU) (B3G) (B1U) (B2G) (AG) (B2U) (B3G) (B1U)
                 (B3G) (B3U) (B2G) (AG) (B2U) (AG) (B1U) (B3G)
                 (B2U) (B1G) (B3G) (B3U) (B2G) (B2U) (B1U) (AU)
                 (B2G) (AG) (B1G) (B2U) (B1U) (B3G) (B1U) (AU)
                 (AG) (B3U) (B3G) (AG) (B2U) (B1U) (B3U) (AG) (B2U)
                 (B3G) (AU) (B1U) (B1G) (AU) (B2G) (AG) (B1G) (B3G)
                 (B1U) (B2U) (AG) (B2U) (B3U) (B1U) (B1G) (B3G)
                 (AG) (B2G) (B3G) (B1U) (B1U) (B3U) (AG) (B3G)
                 (AU) (B2G) (B3G) (B2U) (B1U) (B2U) (B3G) (AG)
                 (B3U) (B1U) (B3G) (B2U) (B2G) (B1G) (B1U) (AG)
                 (B1U) (AU) (B2U) (B3G) (B2U) (AG) (AU) (B2G) (B2U)
                 (AG) (B3U) (B1G) (B3G) (B1U) (B1U) (B2U) (AG)
                 (B3G) (AG) (B1U) (B2U) (AU) (B3U) (B2G) (B3G)
                 (B1G) (B3G) (B2U) (AG) (B1U) (B1U) (B3G) (AG)
                 (B2U) (B2U) (B1U) (B2G) (AU) (AG) (B3G) (B1U)
                 (B2U) (AG) (B1U) (B3G) (AG) (B2U) (B3G) (AG) (B2U)
                 (B1U) (AG) (B1U) (AG) (B3G) (B3G) (B2U) (B2U)
                 (B1U) (AG) (B3G) (B1U) (B2U) (AG) (B1U) (B3G)
                 (B1U) (B3G) (B1U) (AG) (B3G) (B1U) (B2U) (AG)
                 (B1U) (B3G)
 The electronic state is 1-AG.
 Alpha  occ. eigenvalues --  -11.25870 -11.25869 -11.25824 -11.25798 -11.25795
 Alpha  occ. eigenvalues --  -11.25744 -11.25533 -11.25532 -11.25515 -11.25508
 Alpha  occ. eigenvalues --  -11.25377 -11.25376 -11.25371 -11.25371 -11.24748
 Alpha  occ. eigenvalues --  -11.24748 -11.24748 -11.24748 -11.24604 -11.24604
 Alpha  occ. eigenvalues --  -11.24603 -11.24603 -11.24555 -11.24555 -11.24550
 Alpha  occ. eigenvalues --  -11.24549 -11.24546 -11.24546  -1.21477  -1.17770
 Alpha  occ. eigenvalues --   -1.17240  -1.13938  -1.11127  -1.10456  -1.07751
 Alpha  occ. eigenvalues --   -1.06520  -1.03003  -1.01987  -1.00474  -1.00470
 Alpha  occ. eigenvalues --   -0.99022  -0.93089  -0.90433  -0.87202  -0.86110
 Alpha  occ. eigenvalues --   -0.85592  -0.84659  -0.82223  -0.77538  -0.77448
 Alpha  occ. eigenvalues --   -0.75244  -0.72765  -0.72060  -0.71295  -0.67912
 Alpha  occ. eigenvalues --   -0.67249  -0.65633  -0.64467  -0.64279  -0.62950
 Alpha  occ. eigenvalues --   -0.62928  -0.61647  -0.59524  -0.59346  -0.58944
 Alpha  occ. eigenvalues --   -0.58186  -0.57668  -0.56203  -0.56015  -0.55147
 Alpha  occ. eigenvalues --   -0.54677  -0.53157  -0.52700  -0.52335  -0.52015
 Alpha  occ. eigenvalues --   -0.50836  -0.50217  -0.49510  -0.48174  -0.46308
 Alpha  occ. eigenvalues --   -0.45431  -0.44720  -0.43962  -0.40320  -0.38869
 Alpha  occ. eigenvalues --   -0.35890  -0.31784  -0.31356  -0.31019  -0.29950
 Alpha  occ. eigenvalues --   -0.20555
 Alpha virt. eigenvalues --    0.00194   0.09389   0.09514   0.10178   0.12136
 Alpha virt. eigenvalues --    0.13464   0.17915   0.18542   0.18718   0.19506
 Alpha virt. eigenvalues --    0.19827   0.20298   0.20320   0.21523   0.22290
 Alpha virt. eigenvalues --    0.23830   0.24114   0.24701   0.25060   0.26424
 Alpha virt. eigenvalues --    0.28270   0.29388   0.31756   0.32587   0.32875
 Alpha virt. eigenvalues --    0.36547   0.38716   0.38836   0.39235   0.39342
 Alpha virt. eigenvalues --    0.41178   0.41651   0.42026   0.42590   0.42638
 Alpha virt. eigenvalues --    0.44404   0.44816   0.45228   0.46229   0.46776
 Alpha virt. eigenvalues --    0.48207   0.48479   0.49637   0.50871   0.52325
 Alpha virt. eigenvalues --    0.54261   0.54620   0.58671   0.59413   0.59893
 Alpha virt. eigenvalues --    0.62269   0.63768   0.63794   0.64908   0.64959
 Alpha virt. eigenvalues --    0.65008   0.65218   0.66714   0.66874   0.66943
 Alpha virt. eigenvalues --    0.66962   0.67039   0.67044   0.68422   0.68596
 Alpha virt. eigenvalues --    0.68895   0.69400   0.69434   0.69683   0.69951
 Alpha virt. eigenvalues --    0.70604   0.71094   0.71366   0.71834   0.71862
 Alpha virt. eigenvalues --    0.72428   0.72799   0.73767   0.73901   0.74262
 Alpha virt. eigenvalues --    0.74293   0.74752   0.74951   0.74990   0.75082
 Alpha virt. eigenvalues --    0.75220   0.75816   0.76210   0.76948   0.77443
 Alpha virt. eigenvalues --    0.78025   0.78128   0.78277   0.78535   0.79996
 Alpha virt. eigenvalues --    0.80593   0.81693   0.83296   0.84695   0.84888
 Alpha virt. eigenvalues --    0.85341   0.85670   0.86182   0.86819   0.88045
 Alpha virt. eigenvalues --    0.89366   0.90223   0.90266   0.90490   0.90607
 Alpha virt. eigenvalues --    0.90779   0.90982   0.92724   0.92732   0.92784
 Alpha virt. eigenvalues --    0.93061   0.94433   0.96194   0.96399   0.96589
 Alpha virt. eigenvalues --    0.97246   0.98487   0.99872   1.01861   1.03339
 Alpha virt. eigenvalues --    1.03911   1.05110   1.05528   1.06293   1.08586
 Alpha virt. eigenvalues --    1.08855   1.09372   1.09800   1.11970   1.12078
 Alpha virt. eigenvalues --    1.12952   1.13118   1.13188   1.13205   1.13222
 Alpha virt. eigenvalues --    1.14376   1.15521   1.15687   1.15916   1.16008
 Alpha virt. eigenvalues --    1.17155   1.17399   1.17921   1.17929   1.17964
 Alpha virt. eigenvalues --    1.18293   1.18582   1.18604   1.19853   1.20273
 Alpha virt. eigenvalues --    1.20515   1.22422   1.22731   1.22789   1.22912
 Alpha virt. eigenvalues --    1.23521   1.23868   1.23890   1.24539   1.24911
 Alpha virt. eigenvalues --    1.25515   1.27506   1.27660   1.28924   1.29425
 Alpha virt. eigenvalues --    1.29536   1.29995   1.30882   1.31883   1.32825
 Alpha virt. eigenvalues --    1.33819   1.34244   1.34307   1.34372   1.36738
 Alpha virt. eigenvalues --    1.38875   1.40914   1.44821   1.45426   1.46017
 Alpha virt. eigenvalues --    1.48392   1.49574   1.56795   1.58035   1.58148
 Alpha virt. eigenvalues --    1.59480   1.60268   1.60988   1.61090   1.61464
 Alpha virt. eigenvalues --    1.62088   1.63056   1.63313   1.63387   1.63889
 Alpha virt. eigenvalues --    1.65046   1.65198   1.65822   1.66196   1.68254
 Alpha virt. eigenvalues --    1.68362   1.69219   1.72055   1.72492   1.73708
 Alpha virt. eigenvalues --    1.73926   1.74366   1.74714   1.74751   1.74754
 Alpha virt. eigenvalues --    1.74848   1.75057   1.77178   1.79141   1.79992
 Alpha virt. eigenvalues --    1.81128   1.81487   1.81581   1.83571   1.83922
 Alpha virt. eigenvalues --    1.84717   1.85362   1.87049   1.87126   1.87365
 Alpha virt. eigenvalues --    1.88068   1.88589   1.88873   1.89375   1.90134
 Alpha virt. eigenvalues --    1.90279   1.90416   1.91142   1.92039   1.92236
 Alpha virt. eigenvalues --    1.92370   1.93385   1.94176   1.95224   1.96080
 Alpha virt. eigenvalues --    1.96181   1.96634   1.96696   1.97050   1.97130
 Alpha virt. eigenvalues --    1.97502   1.97736   1.98885   2.00492   2.01632
 Alpha virt. eigenvalues --    2.02344   2.03033   2.03347   2.04490   2.05125
 Alpha virt. eigenvalues --    2.05362   2.05465   2.05494   2.05833   2.06409
 Alpha virt. eigenvalues --    2.08238   2.08849   2.09171   2.10248   2.10517
 Alpha virt. eigenvalues --    2.11166   2.11263   2.12246   2.13281   2.13475
 Alpha virt. eigenvalues --    2.14532   2.15076   2.15619   2.15751   2.17022
 Alpha virt. eigenvalues --    2.18090   2.19252   2.19501   2.19621   2.20226
 Alpha virt. eigenvalues --    2.20820   2.21376   2.21881   2.22526   2.23464
 Alpha virt. eigenvalues --    2.23689   2.25516   2.27590   2.27696   2.28998
 Alpha virt. eigenvalues --    2.30159   2.30443   2.31372   2.34600   2.34861
 Alpha virt. eigenvalues --    2.35031   2.37969   2.38100   2.38972   2.39128
 Alpha virt. eigenvalues --    2.41697   2.42271   2.42291   2.44179   2.44679
 Alpha virt. eigenvalues --    2.45302   2.46751   2.50295   2.51138   2.52426
 Alpha virt. eigenvalues --    2.52626   2.54711   2.55440   2.55975   2.57908
 Alpha virt. eigenvalues --    2.57965   2.59182   2.60193   2.60728   2.61350
 Alpha virt. eigenvalues --    2.66161   2.67443   2.67572   2.68167   2.69999
 Alpha virt. eigenvalues --    2.72726   2.74886   2.75999   2.76082   2.77341
 Alpha virt. eigenvalues --    2.78136   2.78561   2.81534   2.84612   2.84840
 Alpha virt. eigenvalues --    2.89823   2.92184   2.92865   2.93024   2.95361
 Alpha virt. eigenvalues --    2.95875   2.99875   3.00179   3.02296   3.04638
 Alpha virt. eigenvalues --    3.05018   3.06209   3.07136   3.11938   3.14118
 Alpha virt. eigenvalues --    3.16615   3.18143   3.18363   3.18513   3.26373
 Alpha virt. eigenvalues --    3.29094   3.35732   3.40013   3.48789   3.61063
 Alpha virt. eigenvalues --    3.70770   3.75385   3.77353   3.78886   3.92948
 Alpha virt. eigenvalues --    3.95472
          Condensed to atoms (all electrons):
 Mulliken charges:
               1
     1  C    0.024364
     2  C    0.027086
     3  C   -0.086178
     4  C    0.060743
     5  C   -0.086178
     6  C    0.027086
     7  C    0.024364
     8  C   -0.030717
     9  C   -0.037164
    10  C   -0.037164
    11  C   -0.030717
    12  C    0.024364
    13  C    0.027086
    14  C   -0.086178
    15  C    0.060743
    16  C   -0.086178
    17  C    0.027086
    18  C    0.024364
    19  C   -0.030717
    20  C   -0.037164
    21  C   -0.037164
    22  C   -0.030717
    23  C   -0.033304
    24  C    0.068530
    25  C   -0.033304
    26  C    0.068530
    27  C   -0.033304
    28  C   -0.033304
    29  H    0.028398
    30  H    0.016026
    31  H    0.009126
    32  H    0.016026
    33  H    0.028398
    34  H    0.022289
    35  H    0.022289
    36  H    0.028398
    37  H    0.016026
    38  H    0.009126
    39  H    0.016026
    40  H    0.028398
    41  H    0.022289
    42  H    0.022289
 Sum of Mulliken charges =  -0.00000
 Mulliken charges with hydrogens summed into heavy atoms:
               1
     1  C    0.052762
     2  C    0.043113
     3  C   -0.086178
     4  C    0.069869
     5  C   -0.086178
     6  C    0.043113
     7  C    0.052762
     8  C   -0.008428
     9  C   -0.037164
    10  C   -0.037164
    11  C   -0.008428
    12  C    0.052762
    13  C    0.043113
    14  C   -0.086178
    15  C    0.069869
    16  C   -0.086178
    17  C    0.043113
    18  C    0.052762
    19  C   -0.008428
    20  C   -0.037164
    21  C   -0.037164
    22  C   -0.008428
    23  C   -0.033304
    24  C    0.068530
    25  C   -0.033304
    26  C    0.068530
    27  C   -0.033304
    28  C   -0.033304
 Electronic spatial extent (au):  <R**2>=           8778.0497
 Charge=              0.0000 electrons
 Dipole moment (field-independent basis, Debye):
    X=             -0.0000    Y=             -0.0000    Z=             -0.0000  Tot=              0.0000
 Unable to Open any file for archive entry.
 1\1\GINC-NODE01\SP\RMP2-FC\CC-pVDZ\C28H14\XUHJ\11-Oct-2024\0\\#T MP2/c
 c-pVDZ symm=veryloose\\c1cc2cc3cccc4c5cccc6cc7cccc8c(c1)c2c(c34)c(c78)
 c65\\0,1\C,0,0.,-3.652536,-2.895185\C,0,0.,-2.461429,-3.581866\C,0,0.,
 -1.223769,-2.874783\C,0,0.,0.,-3.556545\C,0,0.,1.223769,-2.874783\C,0,
 0.,2.461429,-3.581866\C,0,0.,3.652536,-2.895185\C,0,0.,3.663769,-1.482
 781\C,0,0.,2.48892,-0.736028\C,0,0.,2.48892,0.736028\C,0,0.,3.663769,1
 .482781\C,0,0.,3.652536,2.895185\C,0,0.,2.461429,3.581866\C,0,0.,1.223
 769,2.874783\C,0,0.,0.,3.556545\C,0,0.,-1.223769,2.874783\C,0,0.,-2.46
 1429,3.581866\C,0,0.,-3.652536,2.895185\C,0,0.,-3.663769,1.482781\C,0,
 0.,-2.48892,0.736028\C,0,0.,-2.48892,-0.736028\C,0,0.,-3.663769,-1.482
 781\C,0,0.,-1.231068,-1.432515\C,0,0.,0.,-0.726264\C,0,0.,1.231068,-1.
 432515\C,0,0.,0.,0.726264\C,0,0.,-1.231068,1.432515\C,0,0.,1.231068,1.
 432515\H,0,0.,-4.602856,-3.436962\H,0,0.,-2.441978,-4.67552\H,0,0.,0.,
 -4.650643\H,0,0.,2.441978,-4.67552\H,0,0.,4.602856,-3.436962\H,0,0.,4.
 631586,-0.979983\H,0,0.,4.631586,0.979983\H,0,0.,4.602856,3.436962\H,0
 ,0.,2.441978,4.67552\H,0,0.,0.,4.650643\H,0,0.,-2.441978,4.67552\H,0,0
 .,-4.602856,3.436962\H,0,0.,-4.631586,0.979983\H,0,0.,-4.631586,-0.979
 983\\Version=ES64L-G16RevC.01\State=1-AG\HF=-1068.617465\MP2=-1072.230
 3911\RMSD=6.941e-09\PG=D02H [C2"(H1C1C1.C1C1H1),SG(C24H12)]\\@
 The archive entry for this job was punched.


 Everywhere is walking distance if you have the time.
                                    -- Steven Wright
 Job cpu time:       0 days  0 hours  8 minutes 28.1 seconds.
 Elapsed time:       0 days  0 hours  1 minutes  3.5 seconds.
 File lengths (MBytes):  RWF=  10613 Int=      0 D2E=      0 Chk=     15 Scr=      1
 Normal termination of Gaussian 16 at Fri Oct 11 15:53:34 2024.
