 Entering Gaussian System, Link 0=g16
 Initial command:
 /opt/g16/l1.exe "/tmp/Gau-2564147.inp" -scrdir="/tmp/"
 Entering Link 1 = /opt/g16/l1.exe PID=   2564149.
  
 Copyright (c) 1988-2019, Gaussian, Inc.  All Rights Reserved.
  
 This is part of the Gaussian(R) 16 program.  It is based on
 the Gaussian(R) 09 system (copyright 2009, Gaussian, Inc.),
 the Gaussian(R) 03 system (copyright 2003, Gaussian, Inc.),
 the Gaussian(R) 98 system (copyright 1998, Gaussian, Inc.),
 the Gaussian(R) 94 system (copyright 1995, Gaussian, Inc.),
 the Gaussian 92(TM) system (copyright 1992, Gaussian, Inc.),
 the Gaussian 90(TM) system (copyright 1990, Gaussian, Inc.),
 the Gaussian 88(TM) system (copyright 1988, Gaussian, Inc.),
 the Gaussian 86(TM) system (copyright 1986, Carnegie Mellon
 University), and the Gaussian 82(TM) system (copyright 1983,
 Carnegie Mellon University). Gaussian is a federally registered
 trademark of Gaussian, Inc.
  
 This software contains proprietary and confidential information,
 including trade secrets, belonging to Gaussian, Inc.
  
 This software is provided under written license and may be
 used, copied, transmitted, or stored only in accord with that
 written license.
  
 The following legend is applicable only to US Government
 contracts under FAR:
  
                    RESTRICTED RIGHTS LEGEND
  
 Use, reproduction and disclosure by the US Government is
 subject to restrictions as set forth in subparagraphs (a)
 and (c) of the Commercial Computer Software - Restricted
 Rights clause in FAR 52.227-19.
  
 Gaussian, Inc.
 340 Quinnipiac St., Bldg. 40, Wallingford CT 06492
  
  
 ---------------------------------------------------------------
 Warning -- This program may not be used in any manner that
 competes with the business of Gaussian, Inc. or will provide
 assistance to any competitor of Gaussian, Inc.  The licensee
 of this program is prohibited from giving any competitor of
 Gaussian, Inc. access to this program.  By using this program,
 the user acknowledges that Gaussian, Inc. is engaged in the
 business of creating and licensing software in the field of
 computational chemistry and represents and warrants to the
 licensee that it is not a competitor of Gaussian, Inc. and that
 it will not use this program in any manner prohibited above.
 ---------------------------------------------------------------
  

 Cite this work as:
 Gaussian 16, Revision C.01,
 M. J. Frisch, G. W. Trucks, H. B. Schlegel, G. E. Scuseria, 
 M. A. Robb, J. R. Cheeseman, G. Scalmani, V. Barone, 
 G. A. Petersson, H. Nakatsuji, X. Li, M. Caricato, A. V. Marenich, 
 J. Bloino, B. G. Janesko, R. Gomperts, B. Mennucci, H. P. Hratchian, 
 J. V. Ortiz, A. F. Izmaylov, J. L. Sonnenberg, D. Williams-Young, 
 F. Ding, F. Lipparini, F. Egidi, J. Goings, B. Peng, A. Petrone, 
 T. Henderson, D. Ranasinghe, V. G. Zakrzewski, J. Gao, N. Rega, 
 G. Zheng, W. Liang, M. Hada, M. Ehara, K. Toyota, R. Fukuda, 
 J. Hasegawa, M. Ishida, T. Nakajima, Y. Honda, O. Kitao, H. Nakai, 
 T. Vreven, K. Throssell, J. A. Montgomery, Jr., J. E. Peralta, 
 F. Ogliaro, M. J. Bearpark, J. J. Heyd, E. N. Brothers, K. N. Kudin, 
 V. N. Staroverov, T. A. Keith, R. Kobayashi, J. Normand, 
 K. Raghavachari, A. P. Rendell, J. C. Burant, S. S. Iyengar, 
 J. Tomasi, M. Cossi, J. M. Millam, M. Klene, C. Adamo, R. Cammi, 
 J. W. Ochterski, R. L. Martin, K. Morokuma, O. Farkas, 
 J. B. Foresman, and D. J. Fox, Gaussian, Inc., Wallingford CT, 2019.
 
 ******************************************
 Gaussian 16:  ES64L-G16RevC.01  3-Jul-2019
                11-Oct-2024 
 ******************************************
 %nprocshared=8
 Will use up to    8 processors via shared memory.
 %mem=10400MB
 -----------------------------
 #T MP2/cc-pVDZ symm=veryloose
 -----------------------------
 --------------------------------------
 c1ccc2cc3cc4c5ccccc5c5ccccc5c4cc3cc2c1
 --------------------------------------
 Symbolic Z-matrix:
 Charge =  0 Multiplicity = 1
 C                     0.        0.71464   6.52246 
 C                     0.       -0.71464   6.52246 
 C                     0.       -1.40945   5.33979 
 C                     0.       -0.72477   4.08162 
 C                     0.       -1.40706   2.85973 
 C                     0.       -0.72102   1.63262 
 C                     0.       -1.39157   0.38365 
 C                     0.       -0.72477  -0.83218 
 C                     0.       -1.45151  -2.11239 
 C                     0.       -2.86353  -2.15473 
 C                     0.       -3.56284  -3.35265 
 C                     0.       -2.85778  -4.56349 
 C                     0.       -1.47044  -4.54685 
 C                     0.       -0.73641  -3.3398 
 C                     0.        0.73641  -3.3398 
 C                     0.        1.47044  -4.54685 
 C                     0.        2.85778  -4.56349 
 C                     0.        3.56284  -3.35265 
 C                     0.        2.86353  -2.15473 
 C                     0.        1.45151  -2.11239 
 C                     0.        0.72477  -0.83218 
 C                     0.        1.39157   0.38365 
 C                     0.        0.72102   1.63262 
 C                     0.        1.40706   2.85973 
 C                     0.        0.72477   4.08162 
 C                     0.        1.40945   5.33979 
 H                     0.        1.25181   7.47552 
 H                     0.       -1.25181   7.47552 
 H                     0.       -2.50387   5.33722 
 H                     0.       -2.50178   2.85858 
 H                     0.       -2.48148   0.4148 
 H                     0.       -3.43465  -1.22623 
 H                     0.       -4.65664  -3.34642 
 H                     0.       -3.39229  -5.51781 
 H                     0.       -0.94615  -5.50231 
 H                     0.        0.94615  -5.50231 
 H                     0.        3.39229  -5.51781 
 H                     0.        4.65664  -3.34642 
 H                     0.        3.43465  -1.22623 
 H                     0.        2.48148   0.4148 
 H                     0.        2.50178   2.85858 
 H                     0.        2.50387   5.33722 
 
                    Distance matrix (angstroms):
                    1          2          3          4          5
     1  C    0.000000
     2  C    1.429282   0.000000
     3  C    2.431138   1.371658   0.000000
     4  C    2.833656   2.440862   1.432408   0.000000
     5  C    4.232868   3.727600   2.480064   1.399472   0.000000
     6  C    5.096236   4.889841   3.770553   2.448999   1.405864
     7  C    6.490076   6.176018   4.956177   3.757603   2.476130
     8  C    7.494174   7.354648   6.209839   4.913800   3.754432
     9  C    8.902404   8.666231   7.452303   6.236495   4.972320
    10  C    9.385990   8.939309   7.634278   6.592895   5.221694
    11  C   10.761721  10.277647   8.955207   7.957575   6.575797
    12  C   11.647337  11.291205  10.008633   8.904360   7.563652
    13  C   11.282912  11.095078   9.886831   8.660625   7.406851
    14  C    9.968435   9.862283   8.705652   7.421427   6.235703
    15  C    9.862283   9.968435   8.940920   7.563893   6.559622
    16  C   11.095078  11.282912  10.297544   8.903333   7.945905
    17  C   11.291205  11.647337  10.783520   9.358022   8.561140
    18  C   10.277647  10.761721  10.014103   8.582072   7.955729
    19  C    8.939309   9.385990   8.627059   7.194988   6.586555
    20  C    8.666231   8.902404   7.982489   6.565205   5.735279
    21  C    7.354648   7.494174   6.530557   5.123142   4.263205
    22  C    6.176018   6.490076   5.692895   4.260734   3.736750
    23  C    4.889841   5.096236   4.275747   2.843921   2.456525
    24  C    3.727600   4.232868   3.752787   2.457173   2.814118
    25  C    2.440862   2.833656   2.477476   1.449540   2.457173
    26  C    1.371658   2.431138   2.818890   2.477476   3.752787
    27  H    1.094025   2.185241   3.412277   3.927530   5.326833
    28  H    2.185241   1.094025   2.141539   3.434587   4.618403
    29  H    3.429806   2.146185   1.094424   2.177551   2.709418
    30  H    4.875387   4.076505   2.711022   2.157220   1.094724
    31  H    6.893381   6.358085   5.040324   4.065906   2.670596
    32  H    8.789692   8.212218   6.871249   5.959583   4.561377
    33  H   11.235896  10.627044   9.273325   8.404480   7.005431
    34  H   12.721436  12.334418  11.037176   9.963166   8.609550
    35  H   12.138913  12.026993  10.851996   9.586480   8.374732
    36  H   12.026993  12.138913  11.095044   9.728493   8.686845
    37  H   12.334418  12.721436  11.871995  10.445056   9.654894
    38  H   10.627044  11.235896  10.594700   9.172527   8.676677
    39  H    8.212218   8.789692   8.159526   6.743438   6.335391
    40  H    6.358085   6.893381   6.276535   4.870893   4.593303
    41  H    4.076505   4.875387   4.631861   3.450575   3.908841
    42  H    2.146185   3.429806   3.913312   3.464194   4.629611
                    6          7          8          9         10
     6  C    0.000000
     7  C    1.417592   0.000000
     8  C    2.464807   1.386678   0.000000
     9  C    3.815589   2.496759   1.472103   0.000000
    10  C    4.351361   2.934283   2.514641   1.412650   0.000000
    11  C    5.738370   4.321385   3.795712   2.448665   1.387106
    12  C    6.554201   5.159843   4.297955   2.825862   2.408771
    13  C    6.224746   4.931129   3.788767   2.434533   2.768204
    14  C    4.972446   3.780652   2.507645   1.420535   2.434965
    15  C    5.181608   4.288632   2.902270   2.508690   3.789976
    16  C    6.556547   5.700954   4.314817   3.803205   4.950301
    17  C    7.155391   6.521595   5.172748   4.957614   6.207701
    18  C    6.573006   6.205331   4.973565   5.165463   6.537068
    19  C    5.214688   4.954715   3.824262   4.315249   5.727056
    20  C    4.329549   3.783296   2.524900   2.903026   4.315249
    21  C    2.857544   2.440723   1.449534   2.524900   3.824262
    22  C    2.454171   2.783138   2.440723   3.783296   4.954715
    23  C    1.442038   2.454171   2.857544   4.329549   5.214688
    24  C    2.456525   3.736750   4.263205   5.735279   6.586555
    25  C    2.843921   4.260734   5.123142   6.565205   7.194988
    26  C    4.275747   5.692895   6.530557   7.982489   8.627059
    27  H    6.166976   7.568498   8.539607   9.961730  10.472715
    28  H    5.866964   7.093252   8.324409   9.589993   9.764188
    29  H    4.111280   5.076917   6.420807   7.523574   7.500577
    30  H    2.161963   2.712533   4.096278   5.080705   5.026337
    31  H    2.140634   1.090355   2.154297   2.729011   2.597770
    32  H    3.941673   2.601129   2.738382   2.172124   1.090090
    33  H    6.346647   4.957225   4.667011   3.434480   2.152992
    34  H    7.633109   6.231382   5.391733   3.919632   3.404398
    35  H    7.138479   5.902787   4.675368   3.427380   3.857803
    36  H    7.327117   6.333199   4.960042   4.152147   5.071483
    37  H    8.249120   7.596877   6.237409   5.921092   7.102507
    38  H    7.328712   7.105928   5.939773   6.231560   7.614002
    39  H    5.044064   5.087640   4.178040   4.965871   6.366252
    40  H    3.426235   3.873173   3.440199   4.674943   5.930561
    41  H    3.448103   4.613398   4.902278   6.351303   7.343007
    42  H    4.911615   6.301770   6.963163   8.434556   9.216193
                   11         12         13         14         15
    11  C    0.000000
    12  C    1.401156   0.000000
    13  C    2.409206   1.387449   0.000000
    14  C    2.826466   2.449013   1.412715   0.000000
    15  C    4.299266   3.796789   2.515374   1.472810   0.000000
    16  C    5.173005   4.328251   2.940870   2.515374   1.412715
    17  C    6.533802   5.715568   4.328251   3.796789   2.449013
    18  C    7.125684   6.533802   5.173005   4.299266   2.826466
    19  C    6.537068   6.207701   4.950301   3.789976   2.434965
    20  C    5.165463   4.957614   3.803205   2.508690   1.420535
    21  C    4.973565   5.172748   4.314817   2.902270   2.507645
    22  C    6.205331   6.521595   5.700954   4.288632   3.780652
    23  C    6.573006   7.155391   6.556547   5.181608   4.972446
    24  C    7.955729   8.561140   7.945905   6.559622   6.235703
    25  C    8.582072   9.358022   8.903333   7.563893   7.421427
    26  C   10.014103  10.783520  10.297544   8.940920   8.705652
    27  H   11.850329  12.721111  12.326722  10.996558  10.827600
    28  H   11.072048  12.145659  12.024361  10.827600  10.996558
    29  H    8.754161   9.907037   9.937949   8.855205   9.262295
    30  H    6.301206   7.430600   7.476897   6.444877   6.993264
    31  H    3.919568   4.992489   5.063609   4.140325   4.944874
    32  H    2.130288   3.386756   3.858067   3.427497   4.675993
    33  H    1.093814   2.171898   3.404838   3.920239   5.393047
    34  H    2.171866   1.093812   2.153206   3.434742   4.667960
    35  H    3.386459   2.129724   1.089852   2.172654   2.739967
    36  H    4.995200   3.918071   2.598611   2.739967   2.172654
    37  H    7.284352   6.322512   4.958717   4.667960   3.434742
    38  H    8.219482   7.612345   6.243561   5.393047   3.920239
    39  H    7.313452   7.122645   5.923378   4.675993   3.427497
    40  H    7.122323   7.300073   6.343149   4.944874   4.140325
    41  H    8.680957   9.154891   8.403501   6.993264   6.444877
    42  H   10.598059  11.259281  10.653165   9.262295   8.855205
                   16         17         18         19         20
    16  C    0.000000
    17  C    1.387449   0.000000
    18  C    2.409206   1.401156   0.000000
    19  C    2.768204   2.408771   1.387106   0.000000
    20  C    2.434533   2.825862   2.448665   1.412650   0.000000
    21  C    3.788767   4.297955   3.795712   2.514641   1.472103
    22  C    4.931129   5.159843   4.321385   2.934283   2.496759
    23  C    6.224746   6.554201   5.738370   4.351361   3.815589
    24  C    7.406851   7.563652   6.575797   5.221694   4.972320
    25  C    8.660625   8.904360   7.957575   6.592895   6.236495
    26  C    9.886831  10.008633   8.955207   7.634278   7.452303
    27  H   12.024361  12.145659  11.072048   9.764188   9.589993
    28  H   12.326722  12.721111  11.850329  10.472715   9.961730
    29  H   10.653165  11.259281  10.598059   9.216193   8.434556
    30  H    8.403501   9.154891   8.680957   7.343007   6.351303
    31  H    6.343149   7.300073   7.122323   5.930561   4.674943
    32  H    5.923378   7.122645   7.313452   6.366252   4.965871
    33  H    6.243561   7.612345   8.219482   7.614002   6.231560
    34  H    4.958717   6.322512   7.284352   7.102507   5.921092
    35  H    2.598611   3.918071   4.995200   5.071483   4.152147
    36  H    1.089852   2.129724   3.386459   3.857803   3.427380
    37  H    2.153206   1.093812   2.171866   3.404398   3.919632
    38  H    3.404838   2.171898   1.093814   2.152992   3.434480
    39  H    3.858067   3.386756   2.130288   1.090090   2.172124
    40  H    5.063609   4.992489   3.919568   2.597770   2.729011
    41  H    7.476897   7.430600   6.301206   5.026337   5.080705
    42  H    9.937949   9.907037   8.754161   7.500577   7.523574
                   21         22         23         24         25
    21  C    0.000000
    22  C    1.386678   0.000000
    23  C    2.464807   1.417592   0.000000
    24  C    3.754432   2.476130   1.405864   0.000000
    25  C    4.913800   3.757603   2.448999   1.399472   0.000000
    26  C    6.209839   4.956177   3.770553   2.480064   1.432408
    27  H    8.324409   7.093252   5.866964   4.618403   3.434587
    28  H    8.539607   7.568498   6.166976   5.326833   3.927530
    29  H    6.963163   6.301770   4.911615   4.629611   3.464194
    30  H    4.902278   4.613398   3.448103   3.908841   3.450575
    31  H    3.440199   3.873173   3.426235   4.593303   4.870893
    32  H    4.178040   5.087640   5.044064   6.335391   6.743438
    33  H    5.939773   7.105928   7.328712   8.676677   9.172527
    34  H    6.237409   7.596877   8.249120   9.654894  10.445056
    35  H    4.960042   6.333199   7.327117   8.686845   9.728493
    36  H    4.675368   5.902787   7.138479   8.374732   9.586480
    37  H    5.391733   6.231382   7.633109   8.609550   9.963166
    38  H    4.667011   4.957225   6.346647   7.005431   8.404480
    39  H    2.738382   2.601129   3.941673   4.561377   5.959583
    40  H    2.154297   1.090355   2.140634   2.670596   4.065906
    41  H    4.096278   2.712533   2.161963   1.094724   2.157220
    42  H    6.420807   5.076917   4.111280   2.709418   2.177551
                   26         27         28         29         30
    26  C    0.000000
    27  H    2.141539   0.000000
    28  H    3.412277   2.503626   0.000000
    29  H    3.913312   4.321743   2.477897   0.000000
    30  H    4.631861   5.950268   4.783161   2.478647   0.000000
    31  H    6.276535   7.986949   7.167005   4.922477   2.443864
    32  H    8.159526   9.883490   8.971355   6.629117   4.189969
    33  H   10.594700  12.329811  11.344923   8.946510   6.568513
    34  H   11.871995  13.798350  13.168462  10.891329   8.423590
    35  H   11.095044  13.162643  12.981431  10.950885   8.504374
    36  H   10.851996  12.981431  13.162643  11.375325   9.043927
    37  H   11.037176  13.168462  13.798350  12.352992  10.242263
    38  H    9.273325  11.344923  12.329811  11.255152   9.473381
    39  H    6.871249   8.971355   9.883490   8.851260   7.206027
    40  H    5.040324   7.167005   7.986949   7.005993   5.550221
    41  H    2.711022   4.783161   5.950268   5.585714   5.003564
    42  H    1.094424   2.477897   4.321743   5.007732   5.585714
                   31         32         33         34         35
    31  H    0.000000
    32  H    1.897758   0.000000
    33  H    4.344888   2.447137   0.000000
    34  H    6.002117   4.291795   2.512671   0.000000
    35  H    6.113048   4.947476   4.291338   2.446191   0.000000
    36  H    6.838183   6.121788   6.003256   4.338468   1.892298
    37  H    8.348473   8.063798   8.336678   6.784582   4.338468
    38  H    8.068423   8.364458   9.313276   8.336678   6.003256
    39  H    6.139506   6.869300   8.364458   8.063798   6.121788
    40  H    4.962958   6.139506   8.068423   8.348473   6.838183
    41  H    5.550221   7.206027   9.473381  10.242263   9.043927
    42  H    7.005993   8.851260  11.255152  12.352992  11.375325
                   36         37         38         39         40
    36  H    0.000000
    37  H    2.446191   0.000000
    38  H    4.291338   2.512671   0.000000
    39  H    4.947476   4.291795   2.447137   0.000000
    40  H    6.113048   6.002117   4.344888   1.897758   0.000000
    41  H    8.504374   8.423590   6.568513   4.189969   2.443864
    42  H   10.950885  10.891329   8.946510   6.629117   4.922477
                   41         42
    41  H    0.000000
    42  H    2.478647   0.000000
 Framework group  C2V[SGV(C26H16)]
 Deg. of freedom    41
                         Standard orientation:                         
 ---------------------------------------------------------------------
 Center     Atomic      Atomic             Coordinates (Angstroms)
 Number     Number       Type             X           Y           Z
 ---------------------------------------------------------------------
      1          6           0        0.000000    0.714641    6.522457
      2          6           0       -0.000000   -0.714641    6.522457
      3          6           0        0.000000   -1.409445    5.339794
      4          6           0        0.000000   -0.724770    4.081616
      5          6           0        0.000000   -1.407059    2.859731
      6          6           0        0.000000   -0.721019    1.632620
      7          6           0        0.000000   -1.391569    0.383649
      8          6           0        0.000000   -0.724767   -0.832184
      9          6           0        0.000000   -1.451513   -2.112390
     10          6           0        0.000000   -2.863528   -2.154727
     11          6           0        0.000000   -3.562842   -3.352652
     12          6           0        0.000000   -2.857784   -4.563491
     13          6           0        0.000000   -1.470435   -4.546849
     14          6           0        0.000000   -0.736405   -3.339802
     15          6           0        0.000000    0.736405   -3.339802
     16          6           0        0.000000    1.470435   -4.546849
     17          6           0        0.000000    2.857784   -4.563491
     18          6           0        0.000000    3.562842   -3.352652
     19          6           0        0.000000    2.863528   -2.154727
     20          6           0        0.000000    1.451513   -2.112390
     21          6           0        0.000000    0.724767   -0.832184
     22          6           0        0.000000    1.391569    0.383649
     23          6           0        0.000000    0.721019    1.632620
     24          6           0        0.000000    1.407059    2.859731
     25          6           0        0.000000    0.724770    4.081616
     26          6           0        0.000000    1.409445    5.339794
     27          1           0        0.000000    1.251813    7.475524
     28          1           0       -0.000000   -1.251813    7.475524
     29          1           0        0.000000   -2.503866    5.337222
     30          1           0        0.000000   -2.501782    2.858576
     31          1           0        0.000000   -2.481479    0.414796
     32          1           0        0.000000   -3.434650   -1.226225
     33          1           0        0.000000   -4.656638   -3.346419
     34          1           0        0.000000   -3.392291   -5.517811
     35          1           0        0.000000   -0.946149   -5.502308
     36          1           0        0.000000    0.946149   -5.502308
     37          1           0        0.000000    3.392291   -5.517811
     38          1           0        0.000000    4.656638   -3.346419
     39          1           0        0.000000    3.434650   -1.226225
     40          1           0        0.000000    2.481479    0.414796
     41          1           0        0.000000    2.501782    2.858576
     42          1           0        0.000000    2.503866    5.337222
 ---------------------------------------------------------------------
 Rotational constants (GHZ):           0.4441524           0.1129992           0.0900812
   444 basis functions,   970 primitive gaussians,   470 cartesian basis functions
    86 alpha electrons       86 beta electrons
       nuclear repulsion energy      1970.3662737354 Hartrees.
 NAtoms=   42 NActive=   42 NUniq=   21 SFac= 4.00D+00 NAtFMM=   60 NAOKFM=F Big=F
 ExpMin= 1.22D-01 ExpMax= 6.67D+03 ExpMxC= 2.28D+02 IAcc=3 IRadAn=         5 AccDes= 0.00D+00
 Harris functional with IExCor=  205 and IRadAn=       5 diagonalized for initial guess.
 HarFok:  IExCor=  205 AccDes= 0.00D+00 IRadAn=         5 IDoV= 1 UseB2=F ITyADJ=14
 ICtDFT=  3500011 ScaDFX=  1.000000  1.000000  1.000000  1.000000
 FoFCou: FMM=F IPFlag=           0 FMFlag=      100000 FMFlg1=           0
         NFxFlg=           0 DoJE=T BraDBF=F KetDBF=T FulRan=T
         wScrn=  0.000000 ICntrl=       500 IOpCl=  0 I1Cent=   200000004 NGrid=           0
         NMat0=    1 NMatS0=      1 NMatT0=    0 NMatD0=    1 NMtDS0=    0 NMtDT0=    0
 Petite list used in FoFCou.
 Initial guess orbital symmetries:
       Occupied  (B2) (A1) (B2) (A1) (B2) (A1) (B2) (A1) (A1) (B2)
                 (B2) (A1) (B2) (A1) (B2) (A1) (A1) (B2) (A1) (B2)
                 (A1) (B2) (B2) (A1) (B2) (A1) (A1) (A1) (B2) (A1)
                 (A1) (B2) (A1) (B2) (A1) (B2) (B2) (A1) (B2) (A1)
                 (B2) (A1) (A1) (A1) (B2) (A1) (B2) (A1) (B2) (A1)
                 (A1) (A1) (B2) (A1) (B2) (A1) (B2) (A1) (B2) (A1)
                 (A1) (B2) (B2) (B2) (B2) (B1) (A1) (B1) (B2) (A1)
                 (B2) (A1) (A2) (B1) (A1) (B2) (A1) (B1) (A2) (B1)
                 (A2) (B1) (A2) (A2) (B1) (A2)
       Virtual   (B1) (A2) (B1) (B1) (A2) (B1) (A2) (B1) (A2) (B2)
                 (A2) (A1) (B1) (A1) (A1) (B2) (A1) (B2) (A2) (A1)
                 (A1) (B2) (B2) (A1) (B2) (A1) (B2) (A2) (A1) (B2)
                 (A1) (B2) (B2) (A1) (B2) (B2) (A1) (A1) (B2) (A1)
                 (B2) (A1) (B2) (A1) (A1) (A1) (B2) (B2) (B2) (A1)
                 (A1) (B2) (A1) (B2) (B1) (B2) (B1) (A1) (A1) (A2)
                 (B2) (B2) (B1) (A1) (B2) (A1) (A2) (A1) (B2) (B2)
                 (A1) (B1) (B2) (A1) (B2) (A1) (B1) (A1) (A2) (B2)
                 (B2) (A1) (A1) (B2) (A1) (A1) (B1) (B1) (A2) (A1)
                 (B2) (B2) (A2) (B1) (B1) (B2) (A2) (B1) (A1) (A2)
                 (B2) (A1) (A1) (B2) (A1) (A2) (A1) (B2) (B1) (B1)
                 (A2) (B2) (B2) (B2) (A1) (A2) (B1) (A1) (B2) (B2)
                 (A1) (A2) (A2) (B1) (B1) (B2) (B2) (A1) (B1) (A2)
                 (B2) (B1) (B2) (A1) (B2) (A1) (A2) (A1) (B2) (A1)
                 (B1) (A2) (B1) (B2) (A1) (A1) (B2) (B1) (A1) (B1)
                 (A2) (B2) (A1) (A2) (B1) (A2) (B2) (A1) (B1) (A2)
                 (B2) (B1) (A1) (A2) (A1) (B1) (B2) (A1) (A2) (B2)
                 (B1) (A1) (B2) (A1) (B2) (B2) (A1) (B2) (A1) (B2)
                 (B2) (A1) (A1) (B1) (A1) (B2) (A1) (A2) (A1) (A2)
                 (B2) (B1) (A2) (A2) (B2) (A1) (A1) (A1) (B2) (A1)
                 (B2) (A1) (B1) (B2) (A1) (B1) (A2) (B2) (A1) (A1)
                 (B1) (A2) (A2) (A1) (B2) (B1) (A1) (B2) (B2) (A1)
                 (B2) (A1) (A1) (A2) (B2) (A1) (B1) (A1) (B2) (B2)
                 (B2) (A2) (A1) (A1) (A2) (B1) (B1) (B2) (B1) (A1)
                 (A2) (B2) (B1) (A2) (B1) (A2) (B2) (A1) (A1) (B2)
                 (A1) (B1) (B2) (A2) (A2) (B1) (B2) (B2) (A1) (A1)
                 (B2) (A1) (B2) (A2) (A1) (B2) (B1) (A1) (B2) (B1)
                 (B2) (A1) (A2) (B2) (B2) (A1) (B2) (A1) (B1) (A2)
                 (B2) (A1) (B2) (A1) (B1) (B2) (A2) (A1) (A1) (B2)
                 (A2) (B2) (B1) (A1) (B2) (B2) (A1) (B2) (A2) (B1)
                 (A1) (A2) (A1) (B2) (B1) (A1) (B2) (B2) (A1) (A1)
                 (A2) (B2) (A2) (A1) (B2) (B2) (A1) (A1) (A2) (B2)
                 (A2) (A1) (B2) (A1) (B2) (B2) (A1) (B2) (A1) (B2)
                 (A1) (B2) (B2) (A1) (B2) (A1) (A1) (B2) (B2) (A1)
                 (A1) (B2) (B2) (A1) (B2) (A1) (B2) (B2) (A1) (A1)
                 (B2) (B2) (B2) (B2) (B2) (A1) (B2) (B2)
 The electronic state of the initial guess is 1-A1.
 Integral accuracy reduced to 1.0D-05 until final iterations.
 Initial convergence to 1.0D-05 achieved.  Increase integral accuracy.
 SCF Done:  E(RHF) =  -994.016477891     A.U. after   17 cycles
            NFock= 17  Conv=0.46D-08     -V/T= 2.0012
 ExpMin= 1.22D-01 ExpMax= 6.67D+03 ExpMxC= 2.28D+02 IAcc=3 IRadAn=         5 AccDes= 0.00D+00
 HarFok:  IExCor=  205 AccDes= 0.00D+00 IRadAn=         5 IDoV=-2 UseB2=F ITyADJ=14
 ICtDFT= 12500011 ScaDFX=  1.000000  1.000000  1.000000  1.000000
 GSVD:  LWork=        -884 too small for GESVD, short by        3770 words or        3770 for optimal perf.
 NROrb=    418 NOA=    60 NOB=    60 NVA=   358 NVB=   358

 **** Warning!!: The largest alpha MO coefficient is  0.21192676D+02

 Estimated scratch disk usage=  2685824960 words.
 Actual    scratch disk usage=  2023440320 words.
 (rs|ai) integrals will be sorted in core.
 ANorm=    0.1522311074D+01
 E2 =    -0.3363964219D+01 EUMP2 =    -0.99738044211054D+03

 **********************************************************************

            Population analysis using the SCF Density.

 **********************************************************************

 Orbital symmetries:
       Occupied  (A1) (B2) (A1) (B2) (A1) (B2) (A1) (B2) (A1) (B2)
                 (A1) (B2) (A1) (B2) (B2) (A1) (A1) (B2) (A1) (B2)
                 (B2) (A1) (B2) (A1) (B2) (A1) (A1) (A1) (B2) (A1)
                 (A1) (B2) (A1) (B2) (A1) (B2) (B2) (A1) (B2) (A1)
                 (A1) (B2) (A1) (A1) (B2) (A1) (B2) (B2) (A1) (A1)
                 (A1) (B2) (A1) (A1) (B2) (B2) (A1) (A1) (B2) (B2)
                 (B2) (A1) (B2) (A1) (B1) (A1) (B2) (B1) (B2) (A1)
                 (A1) (B2) (A2) (B1) (A1) (B2) (A1) (B1) (A2) (B1)
                 (A2) (B1) (A2) (A2) (B1) (A2)
       Virtual   (B1) (A2) (B1) (B1) (A2) (B1) (B2) (A1) (A2) (A1)
                 (B1) (B2) (A1) (B2) (A1) (A1) (B2) (A2) (B2) (A1)
                 (A1) (B2) (B2) (A2) (B1) (A1) (B2) (B2) (A1) (A2)
                 (A1) (B2) (A1) (B2) (A1) (A1) (A2) (B2) (A1) (B2)
                 (B2) (A1) (B2) (A1) (A1) (A1) (B2) (A1) (A1) (A1)
                 (B2) (B2) (B2) (B1) (B2) (A1) (B1) (B2) (A1) (B2)
                 (A2) (A1) (B1) (A1) (B2) (B2) (A2) (A1) (B1) (B1)
                 (A1) (B2) (A2) (B2) (A1) (B2) (A1) (B2) (B2) (A1)
                 (B1) (B2) (A1) (A2) (A1) (B2) (A1) (B1) (A1) (A1)
                 (A2) (B2) (B1) (B1) (A2) (B2) (B1) (A1) (B2) (A2)
                 (A1) (A2) (A1) (B1) (B2) (B2) (B1) (A1) (A2) (B2)
                 (B2) (A1) (A1) (A2) (A1) (B2) (B1) (A1) (B2) (B2)
                 (A2) (A2) (B1) (B2) (B1) (B2) (A1) (B1) (A2) (B2)
                 (B1) (B2) (A1) (A1) (B2) (A1) (B2) (A2) (B2) (B1)
                 (A1) (A1) (A2) (B1) (A1) (B2) (B2) (A1) (B1) (B2)
                 (A1) (B1) (A2) (A2) (B1) (B2) (A1) (B2) (A1) (A2)
                 (B1) (B2) (A2) (A1) (B1) (A1) (A2) (B2) (A1) (B1)
                 (B2) (A2) (A1) (B2) (B1) (B2) (A1) (B2) (B2) (A1)
                 (B2) (A1) (A1) (A1) (B2) (B1) (A1) (A2) (A1) (A2)
                 (B2) (B2) (A2) (A1) (B1) (A2) (B2) (A1) (B2) (A1)
                 (B1) (B2) (A1) (A1) (B1) (A2) (A1) (A2) (B1) (A2)
                 (B2) (A1) (B1) (A1) (A1) (B2) (B2) (A1) (B2) (A1)
                 (A2) (B2) (A1) (B1) (A1) (B2) (A2) (A1) (B1) (B1)
                 (A2) (A1) (B2) (B2) (A2) (A1) (B2) (B1) (A1) (B2)
                 (A1) (B2) (A2) (B1) (B2) (A2) (B2) (A1) (B1) (A1)
                 (B2) (A2) (B1) (B2) (A1) (B2) (B1) (A1) (A2) (B2)
                 (A1) (B2) (A2) (A1) (B1) (B2) (A1) (B1) (B2) (A1)
                 (B2) (B2) (A1) (A2) (B2) (A1) (B1) (A1) (B2) (A2)
                 (B2) (A1) (B2) (A1) (B1) (B2) (A2) (B2) (A1) (A1)
                 (B1) (A2) (B2) (A1) (B2) (B2) (A1) (B2) (A2) (A1)
                 (B1) (A2) (B1) (A1) (B2) (B2) (A1) (A1) (B2) (A1)
                 (A2) (B2) (A2) (A1) (B2) (B2) (A2) (A1) (A2) (B2)
                 (A1) (A1) (B2) (B2) (A1) (B2) (A1) (B2) (A1) (A1)
                 (B2) (B2) (B2) (A1) (A1) (B2) (B2) (A1) (B2) (A1)
                 (B2) (A1) (B2) (A1) (B2) (B2) (A1) (B2) (A1) (A1)
                 (B2) (B2) (B2) (B2) (B2) (A1) (B2) (B2)
 The electronic state is 1-A1.
 Alpha  occ. eigenvalues --  -11.25842 -11.25759 -11.25680 -11.25634 -11.25563
 Alpha  occ. eigenvalues --  -11.25529 -11.25321 -11.25233 -11.25217 -11.25126
 Alpha  occ. eigenvalues --  -11.24719 -11.24718 -11.24684 -11.24643 -11.24568
 Alpha  occ. eigenvalues --  -11.24568 -11.24546 -11.24529 -11.24529 -11.24493
 Alpha  occ. eigenvalues --  -11.24473 -11.24473 -11.24390 -11.24389 -11.24337
 Alpha  occ. eigenvalues --  -11.24337  -1.19803  -1.17950  -1.14706  -1.14528
 Alpha  occ. eigenvalues --   -1.09763  -1.07015  -1.05943  -1.04467  -1.03602
 Alpha  occ. eigenvalues --   -1.00835  -0.98893  -0.98744  -0.95296  -0.89635
 Alpha  occ. eigenvalues --   -0.86323  -0.85698  -0.83659  -0.81442  -0.80935
 Alpha  occ. eigenvalues --   -0.79897  -0.78702  -0.73214  -0.72830  -0.69858
 Alpha  occ. eigenvalues --   -0.68080  -0.67422  -0.65930  -0.65305  -0.64827
 Alpha  occ. eigenvalues --   -0.62881  -0.61562  -0.60748  -0.60149  -0.59169
 Alpha  occ. eigenvalues --   -0.58878  -0.58829  -0.57826  -0.57391  -0.55908
 Alpha  occ. eigenvalues --   -0.55230  -0.55128  -0.53504  -0.52245  -0.51300
 Alpha  occ. eigenvalues --   -0.50838  -0.49770  -0.49566  -0.49016  -0.47948
 Alpha  occ. eigenvalues --   -0.46935  -0.46318  -0.42647  -0.41058  -0.38215
 Alpha  occ. eigenvalues --   -0.37152  -0.34689  -0.32673  -0.29736  -0.28481
 Alpha  occ. eigenvalues --   -0.24367
 Alpha virt. eigenvalues --    0.03624   0.08351   0.09062   0.11558   0.14842
 Alpha virt. eigenvalues --    0.16880   0.17853   0.18354   0.18469   0.18615
 Alpha virt. eigenvalues --    0.19188   0.19595   0.19663   0.21736   0.21867
 Alpha virt. eigenvalues --    0.23389   0.23676   0.24795   0.24965   0.24988
 Alpha virt. eigenvalues --    0.26772   0.28075   0.32952   0.33652   0.33657
 Alpha virt. eigenvalues --    0.33781   0.34438   0.37654   0.38981   0.39509
 Alpha virt. eigenvalues --    0.40527   0.41441   0.42927   0.43166   0.44236
 Alpha virt. eigenvalues --    0.45152   0.45261   0.45652   0.45971   0.46284
 Alpha virt. eigenvalues --    0.47732   0.49392   0.49571   0.50477   0.52211
 Alpha virt. eigenvalues --    0.52570   0.56874   0.58236   0.59017   0.61507
 Alpha virt. eigenvalues --    0.62391   0.62621   0.63559   0.65266   0.65877
 Alpha virt. eigenvalues --    0.65972   0.66556   0.66629   0.66740   0.67433
 Alpha virt. eigenvalues --    0.67860   0.67873   0.68228   0.68433   0.68793
 Alpha virt. eigenvalues --    0.69156   0.70268   0.70716   0.70770   0.71520
 Alpha virt. eigenvalues --    0.71585   0.71829   0.71865   0.72735   0.72813
 Alpha virt. eigenvalues --    0.73093   0.73640   0.74125   0.74356   0.74675
 Alpha virt. eigenvalues --    0.75281   0.75439   0.75442   0.75595   0.76639
 Alpha virt. eigenvalues --    0.76738   0.77298   0.77334   0.77731   0.77788
 Alpha virt. eigenvalues --    0.77999   0.79252   0.79564   0.81538   0.81622
 Alpha virt. eigenvalues --    0.82177   0.83153   0.85200   0.85839   0.86005
 Alpha virt. eigenvalues --    0.86431   0.88245   0.88712   0.89153   0.89311
 Alpha virt. eigenvalues --    0.89386   0.89897   0.90112   0.90400   0.91371
 Alpha virt. eigenvalues --    0.92393   0.93000   0.93770   0.94392   0.94718
 Alpha virt. eigenvalues --    0.96073   0.96190   0.96884   0.97575   0.99306
 Alpha virt. eigenvalues --    0.99405   1.00579   1.01785   1.02630   1.04915
 Alpha virt. eigenvalues --    1.08402   1.09419   1.09592   1.09640   1.09757
 Alpha virt. eigenvalues --    1.10859   1.10939   1.11582   1.12594   1.12785
 Alpha virt. eigenvalues --    1.13263   1.14452   1.14660   1.14678   1.15783
 Alpha virt. eigenvalues --    1.15864   1.16491   1.16573   1.17070   1.17623
 Alpha virt. eigenvalues --    1.17690   1.18195   1.19427   1.19809   1.20381
 Alpha virt. eigenvalues --    1.20951   1.21353   1.21738   1.22909   1.23192
 Alpha virt. eigenvalues --    1.23684   1.24375   1.24420   1.25074   1.25321
 Alpha virt. eigenvalues --    1.27547   1.27694   1.27733   1.27903   1.28231
 Alpha virt. eigenvalues --    1.30128   1.30463   1.30860   1.31313   1.31950
 Alpha virt. eigenvalues --    1.33027   1.33478   1.34612   1.34926   1.35255
 Alpha virt. eigenvalues --    1.35559   1.39400   1.40109   1.43481   1.44353
 Alpha virt. eigenvalues --    1.49092   1.52178   1.53436   1.55670   1.57190
 Alpha virt. eigenvalues --    1.58118   1.59391   1.60327   1.60486   1.61400
 Alpha virt. eigenvalues --    1.62738   1.63855   1.64681   1.64845   1.64857
 Alpha virt. eigenvalues --    1.66354   1.66806   1.68738   1.68844   1.69955
 Alpha virt. eigenvalues --    1.70762   1.71478   1.71486   1.72219   1.74233
 Alpha virt. eigenvalues --    1.74251   1.74432   1.74737   1.75118   1.75489
 Alpha virt. eigenvalues --    1.76558   1.77572   1.78093   1.78915   1.79897
 Alpha virt. eigenvalues --    1.80137   1.83361   1.84337   1.84374   1.86415
 Alpha virt. eigenvalues --    1.86485   1.87134   1.87650   1.87945   1.88735
 Alpha virt. eigenvalues --    1.89590   1.89968   1.89994   1.90620   1.90819
 Alpha virt. eigenvalues --    1.92052   1.92161   1.92331   1.92454   1.92924
 Alpha virt. eigenvalues --    1.94643   1.94654   1.95116   1.95210   1.95508
 Alpha virt. eigenvalues --    1.96694   1.96959   1.97783   1.98888   1.99812
 Alpha virt. eigenvalues --    2.00208   2.00252   2.00431   2.01422   2.02007
 Alpha virt. eigenvalues --    2.03595   2.04517   2.04656   2.04966   2.06578
 Alpha virt. eigenvalues --    2.06585   2.08316   2.08538   2.08818   2.09643
 Alpha virt. eigenvalues --    2.10468   2.12188   2.12990   2.12993   2.13359
 Alpha virt. eigenvalues --    2.13761   2.14849   2.15213   2.15756   2.15836
 Alpha virt. eigenvalues --    2.16464   2.17230   2.17970   2.18076   2.19216
 Alpha virt. eigenvalues --    2.19864   2.20384   2.20720   2.21122   2.23691
 Alpha virt. eigenvalues --    2.24541   2.26228   2.26627   2.27524   2.27534
 Alpha virt. eigenvalues --    2.29092   2.29671   2.31281   2.31607   2.32439
 Alpha virt. eigenvalues --    2.32870   2.32931   2.33309   2.34949   2.35053
 Alpha virt. eigenvalues --    2.39374   2.40187   2.41657   2.43294   2.44566
 Alpha virt. eigenvalues --    2.45275   2.46525   2.48554   2.48853   2.50626
 Alpha virt. eigenvalues --    2.51576   2.52742   2.54879   2.56192   2.56751
 Alpha virt. eigenvalues --    2.59227   2.59895   2.60777   2.64744   2.65632
 Alpha virt. eigenvalues --    2.66346   2.69646   2.69983   2.70629   2.70967
 Alpha virt. eigenvalues --    2.71530   2.72762   2.73295   2.76772   2.77550
 Alpha virt. eigenvalues --    2.77802   2.77983   2.80406   2.82247   2.89301
 Alpha virt. eigenvalues --    2.91435   2.93272   2.95877   2.97139   2.98441
 Alpha virt. eigenvalues --    3.00490   3.02291   3.03183   3.04127   3.05924
 Alpha virt. eigenvalues --    3.06663   3.07978   3.11019   3.14067   3.14194
 Alpha virt. eigenvalues --    3.20983   3.22167   3.23304   3.29737   3.31689
 Alpha virt. eigenvalues --    3.32330   3.37066   3.61145   3.67372   3.78248
 Alpha virt. eigenvalues --    3.81373   3.91026   4.00400
          Condensed to atoms (all electrons):
 Mulliken charges:
               1
     1  C   -0.018805
     2  C   -0.018805
     3  C    0.025898
     4  C   -0.095798
     5  C    0.069402
     6  C   -0.076958
     7  C    0.046832
     8  C   -0.030808
     9  C   -0.036843
    10  C   -0.023870
    11  C    0.013700
    12  C    0.012229
    13  C   -0.021443
    14  C   -0.038543
    15  C   -0.038543
    16  C   -0.021443
    17  C    0.012229
    18  C    0.013700
    19  C   -0.023870
    20  C   -0.036843
    21  C   -0.030808
    22  C    0.046832
    23  C   -0.076958
    24  C    0.069402
    25  C   -0.095798
    26  C    0.025898
    27  H    0.031177
    28  H    0.031177
    29  H    0.017175
    30  H    0.009498
    31  H    0.013691
    32  H    0.025778
    33  H    0.025800
    34  H    0.026058
    35  H    0.025829
    36  H    0.025829
    37  H    0.026058
    38  H    0.025800
    39  H    0.025778
    40  H    0.013691
    41  H    0.009498
    42  H    0.017175
 Sum of Mulliken charges =  -0.00000
 Mulliken charges with hydrogens summed into heavy atoms:
               1
     1  C    0.012372
     2  C    0.012372
     3  C    0.043073
     4  C   -0.095798
     5  C    0.078900
     6  C   -0.076958
     7  C    0.060523
     8  C   -0.030808
     9  C   -0.036843
    10  C    0.001907
    11  C    0.039501
    12  C    0.038287
    13  C    0.004386
    14  C   -0.038543
    15  C   -0.038543
    16  C    0.004386
    17  C    0.038287
    18  C    0.039501
    19  C    0.001907
    20  C   -0.036843
    21  C   -0.030808
    22  C    0.060523
    23  C   -0.076958
    24  C    0.078900
    25  C   -0.095798
    26  C    0.043073
 Electronic spatial extent (au):  <R**2>=          11152.9960
 Charge=             -0.0000 electrons
 Dipole moment (field-independent basis, Debye):
    X=              0.0000    Y=             -0.0000    Z=             -0.0308  Tot=              0.0308
 Unable to Open any file for archive entry.
 1\1\GINC-NODE01\SP\RMP2-FC\CC-pVDZ\C26H16\XUHJ\11-Oct-2024\0\\#T MP2/c
 c-pVDZ symm=veryloose\\c1ccc2cc3cc4c5ccccc5c5ccccc5c4cc3cc2c1\\0,1\C,0
 ,0.,0.714641,6.522457\C,0,0.,-0.714641,6.522457\C,0,0.,-1.409445,5.339
 794\C,0,0.,-0.72477,4.081616\C,0,0.,-1.407059,2.859731\C,0,0.,-0.72101
 9,1.63262\C,0,0.,-1.391569,0.383649\C,0,0.,-0.724767,-0.832184\C,0,0.,
 -1.451513,-2.11239\C,0,0.,-2.863528,-2.154727\C,0,0.,-3.562842,-3.3526
 52\C,0,0.,-2.857784,-4.563491\C,0,0.,-1.470435,-4.546849\C,0,0.,-0.736
 405,-3.339802\C,0,0.,0.736405,-3.339802\C,0,0.,1.470435,-4.546849\C,0,
 0.,2.857784,-4.563491\C,0,0.,3.562842,-3.352652\C,0,0.,2.863528,-2.154
 727\C,0,0.,1.451513,-2.11239\C,0,0.,0.724767,-0.832184\C,0,0.,1.391569
 ,0.383649\C,0,0.,0.721019,1.63262\C,0,0.,1.407059,2.859731\C,0,0.,0.72
 477,4.081616\C,0,0.,1.409445,5.339794\H,0,0.,1.251813,7.475524\H,0,0.,
 -1.251813,7.475524\H,0,0.,-2.503866,5.337222\H,0,0.,-2.501782,2.858576
 \H,0,0.,-2.481479,0.414796\H,0,0.,-3.43465,-1.226225\H,0,0.,-4.656638,
 -3.346419\H,0,0.,-3.392291,-5.517811\H,0,0.,-0.946149,-5.502308\H,0,0.
 ,0.946149,-5.502308\H,0,0.,3.392291,-5.517811\H,0,0.,4.656638,-3.34641
 9\H,0,0.,3.43465,-1.226225\H,0,0.,2.481479,0.414796\H,0,0.,2.501782,2.
 858576\H,0,0.,2.503866,5.337222\\Version=ES64L-G16RevC.01\State=1-A1\H
 F=-994.0164779\MP2=-997.3804421\RMSD=4.564e-09\PG=C02V [SGV(C26H16)]\\
 @
 The archive entry for this job was punched.


 IN SO FAR AS QUANTUM MECHANICS IS CORRECT, CHEMICAL 
 QUESTIONS ARE PROBLEMS IN APPLIED MATHEMATICS.

                    -- EYRING, WALTER, & KIMBALL, 1944
 Job cpu time:       0 days  0 hours 10 minutes 52.1 seconds.
 Elapsed time:       0 days  0 hours  1 minutes 21.5 seconds.
 File lengths (MBytes):  RWF=  15552 Int=      0 D2E=      0 Chk=     14 Scr=      1
 Normal termination of Gaussian 16 at Fri Oct 11 15:54:56 2024.
