 Entering Gaussian System, Link 0=g16
 Initial command:
 /home/software/g16/l1.exe "/home/software/g16/scr/Gau-88900.inp" -scrdir="/home/software/g16/scr/"
 Default is to use a total of   8 processors:
                                8 via shared-memory
                                1 via Linda
 Entering Link 1 = /home/software/g16/l1.exe PID=     88901.
  
 Copyright (c) 1988-2019, Gaussian, Inc.  All Rights Reserved.
  
 This is part of the Gaussian(R) 16 program.  It is based on
 the Gaussian(R) 09 system (copyright 2009, Gaussian, Inc.),
 the Gaussian(R) 03 system (copyright 2003, Gaussian, Inc.),
 the Gaussian(R) 98 system (copyright 1998, Gaussian, Inc.),
 the Gaussian(R) 94 system (copyright 1995, Gaussian, Inc.),
 the Gaussian 92(TM) system (copyright 1992, Gaussian, Inc.),
 the Gaussian 90(TM) system (copyright 1990, Gaussian, Inc.),
 the Gaussian 88(TM) system (copyright 1988, Gaussian, Inc.),
 the Gaussian 86(TM) system (copyright 1986, Carnegie Mellon
 University), and the Gaussian 82(TM) system (copyright 1983,
 Carnegie Mellon University). Gaussian is a federally registered
 trademark of Gaussian, Inc.
  
 This software contains proprietary and confidential information,
 including trade secrets, belonging to Gaussian, Inc.
  
 This software is provided under written license and may be
 used, copied, transmitted, or stored only in accord with that
 written license.
  
 The following legend is applicable only to US Government
 contracts under FAR:
  
                    RESTRICTED RIGHTS LEGEND
  
 Use, reproduction and disclosure by the US Government is
 subject to restrictions as set forth in subparagraphs (a)
 and (c) of the Commercial Computer Software - Restricted
 Rights clause in FAR 52.227-19.
  
 Gaussian, Inc.
 340 Quinnipiac St., Bldg. 40, Wallingford CT 06492
  
  
 ---------------------------------------------------------------
 Warning -- This program may not be used in any manner that
 competes with the business of Gaussian, Inc. or will provide
 assistance to any competitor of Gaussian, Inc.  The licensee
 of this program is prohibited from giving any competitor of
 Gaussian, Inc. access to this program.  By using this program,
 the user acknowledges that Gaussian, Inc. is engaged in the
 business of creating and licensing software in the field of
 computational chemistry and represents and warrants to the
 licensee that it is not a competitor of Gaussian, Inc. and that
 it will not use this program in any manner prohibited above.
 ---------------------------------------------------------------
  

 Cite this work as:
 Gaussian 16, Revision C.01,
 M. J. Frisch, G. W. Trucks, H. B. Schlegel, G. E. Scuseria, 
 M. A. Robb, J. R. Cheeseman, G. Scalmani, V. Barone, 
 G. A. Petersson, H. Nakatsuji, X. Li, M. Caricato, A. V. Marenich, 
 J. Bloino, B. G. Janesko, R. Gomperts, B. Mennucci, H. P. Hratchian, 
 J. V. Ortiz, A. F. Izmaylov, J. L. Sonnenberg, D. Williams-Young, 
 F. Ding, F. Lipparini, F. Egidi, J. Goings, B. Peng, A. Petrone, 
 T. Henderson, D. Ranasinghe, V. G. Zakrzewski, J. Gao, N. Rega, 
 G. Zheng, W. Liang, M. Hada, M. Ehara, K. Toyota, R. Fukuda, 
 J. Hasegawa, M. Ishida, T. Nakajima, Y. Honda, O. Kitao, H. Nakai, 
 T. Vreven, K. Throssell, J. A. Montgomery, Jr., J. E. Peralta, 
 F. Ogliaro, M. J. Bearpark, J. J. Heyd, E. N. Brothers, K. N. Kudin, 
 V. N. Staroverov, T. A. Keith, R. Kobayashi, J. Normand, 
 K. Raghavachari, A. P. Rendell, J. C. Burant, S. S. Iyengar, 
 J. Tomasi, M. Cossi, J. M. Millam, M. Klene, C. Adamo, R. Cammi, 
 J. W. Ochterski, R. L. Martin, K. Morokuma, O. Farkas, 
 J. B. Foresman, and D. J. Fox, Gaussian, Inc., Wallingford CT, 2019.
 
 ******************************************
 Gaussian 16:  ES64L-G16RevC.01  3-Jul-2019
                15-Mar-2024 
 ******************************************
 %nprocshared=8
 Will use up to    8 processors via shared memory.
 %mem=5760MB
 -----------------------------
 #T MP2/cc-pVDZ symm=veryloose
 -----------------------------
 ----------------------------
 c1ccc2c(c1)c1ccccc1c1ccccc21
 ----------------------------
 Symbolic Z-matrix:
 Charge =  0 Multiplicity = 1
 C                     0.70161   3.70555   0. 
 C                    -0.70161   3.70555   0. 
 C                    -1.38591   2.50068   0. 
 C                    -0.7112    1.25728   0. 
 C                     0.7112    1.25728   0. 
 C                     1.38591   2.50068   0. 
 C                     1.44444  -0.01273   0. 
 C                     2.85861  -0.05011   0. 
 C                     3.5599   -1.24516   0. 
 C                     2.85829  -2.46039   0. 
 C                     1.4727   -2.45058   0. 
 C                     0.73324  -1.24455   0. 
 C                    -0.73324  -1.24455   0. 
 C                    -1.4727   -2.45058   0. 
 C                    -2.85829  -2.46039   0. 
 C                    -3.5599   -1.24516   0. 
 C                    -2.85861  -0.05011   0. 
 C                    -1.44444  -0.01273   0. 
 H                     1.25606   4.64848   0. 
 H                    -1.25606   4.64848   0. 
 H                    -2.4756    2.52749   0. 
 H                     2.4756    2.52749   0. 
 H                     3.42667   0.88019   0. 
 H                     4.65373  -1.23646   0. 
 H                     3.39767  -3.41202   0. 
 H                     0.95107  -3.40768   0. 
 H                    -0.95107  -3.40768   0. 
 H                    -3.39767  -3.41202   0. 
 H                    -4.65373  -1.23646   0. 
 H                    -3.42667   0.88019   0. 
 
                    Distance matrix (angstroms):
                    1          2          3          4          5
     1  C    0.000000
     2  C    1.403224   0.000000
     3  C    2.410282   1.385629   0.000000
     4  C    2.826665   2.448285   1.414669   0.000000
     5  C    2.448285   2.826665   2.438014   1.422392   0.000000
     6  C    1.385629   2.410282   2.771826   2.438014   1.414669
     7  C    3.791745   4.293142   3.785246   2.501931   1.466477
     8  C    4.330999   5.174949   4.952018   3.801680   2.514089
     9  C    5.716582   6.532227   6.204225   4.950201   3.791745
    10  C    6.532227   7.119806   6.528818   5.153861   4.293142
    11  C    6.204225   6.528817   5.717219   4.303206   3.785245
    12  C    4.950201   5.153861   4.303207   2.888869   2.501931
    13  C    5.153861   4.950201   3.801680   2.501931   2.888869
    14  C    6.528817   6.204225   4.952018   3.785245   4.303206
    15  C    7.119806   6.532227   5.174949   4.293142   5.153861
    16  C    6.532227   5.716582   4.330999   3.791745   4.950201
    17  C    5.174949   4.330999   2.945394   2.514089   3.801680
    18  C    4.293142   3.791745   2.514088   1.466477   2.501931
    19  H    1.093866   2.172927   3.404861   3.920504   3.434695
    20  H    2.172927   1.093866   2.151723   3.434695   3.920504
    21  H    3.388584   2.129520   1.090018   2.174064   3.430613
    22  H    2.129520   3.388584   3.861607   3.430613   2.174064
    23  H    3.925377   5.002535   5.078085   4.155013   2.741532
    24  H    6.327929   7.287191   7.102363   5.916182   4.665013
    25  H    7.611079   8.213642   7.605442   6.219742   5.386979
    26  H    7.117596   7.302691   6.353753   4.952267   4.671120
    27  H    7.302691   7.117596   5.924338   4.671120   4.952267
    28  H    8.213642   7.611079   6.245577   5.386979   6.219742
    29  H    7.287191   6.327929   4.964361   4.665013   5.916182
    30  H    5.002535   3.925377   2.605894   2.741532   4.155013
                    6          7          8          9         10
     6  C    0.000000
     7  C    2.514088   0.000000
     8  C    2.945394   1.414669   0.000000
     9  C    4.330999   2.448284   1.385628   0.000000
    10  C    5.174949   2.826665   2.410282   1.403224   0.000000
    11  C    4.952018   2.438014   2.771825   2.410282   1.385629
    12  C    3.801680   1.422392   2.438014   2.826664   2.448284
    13  C    4.303207   2.501932   3.785246   4.293142   3.791746
    14  C    5.717219   3.801680   4.952018   5.174949   4.330999
    15  C    6.528818   4.950202   6.204226   6.532227   5.716582
    16  C    6.204225   5.153862   6.528818   7.119806   6.532227
    17  C    4.952018   4.303207   5.717220   6.528818   6.204226
    18  C    3.785246   2.888870   4.303207   5.153862   4.950202
    19  H    2.151723   4.665013   4.964361   6.327930   7.287191
    20  H    3.404861   5.386979   6.245577   7.611078   8.213642
    21  H    3.861607   4.671121   5.924339   7.117597   7.302692
    22  H    1.090018   2.741532   2.605895   3.925377   5.002535
    23  H    2.605894   2.174064   1.090018   2.129520   3.388584
    24  H    4.964361   3.434694   2.151722   1.093866   2.172927
    25  H    6.245577   3.920504   3.404860   2.172927   1.093866
    26  H    5.924338   3.430613   3.861606   3.388584   2.129520
    27  H    6.353753   4.155013   5.078085   5.002535   3.925377
    28  H    7.605442   5.916183   7.102363   7.287191   6.327930
    29  H    7.102363   6.219742   7.605442   8.213642   7.611079
    30  H    5.078085   4.952268   6.353754   7.302692   7.117597
                   11         12         13         14         15
    11  C    0.000000
    12  C    1.414669   0.000000
    13  C    2.514089   1.466478   0.000000
    14  C    2.945394   2.514089   1.414669   0.000000
    15  C    4.330999   3.791746   2.448284   1.385629   0.000000
    16  C    5.174949   4.293142   2.826664   2.410282   1.403224
    17  C    4.952018   3.785246   2.438014   2.771825   2.410282
    18  C    3.801680   2.501932   1.422392   2.438014   2.826665
    19  H    7.102363   5.916183   6.219742   7.605442   8.213642
    20  H    7.605442   6.219742   5.916183   7.102363   7.287191
    21  H    6.353754   4.952268   4.155013   5.078085   5.002535
    22  H    5.078085   4.155013   4.952268   6.353754   7.302692
    23  H    3.861607   3.430613   4.671121   5.924339   7.117597
    24  H    3.404860   3.920503   5.386979   6.245577   7.611079
    25  H    2.151723   3.434694   4.665014   4.964361   6.327930
    26  H    1.090017   2.174063   2.741531   2.605894   3.925377
    27  H    2.605894   2.741531   2.174063   1.090017   2.129520
    28  H    4.964361   4.665014   3.434694   2.151723   1.093866
    29  H    6.245577   5.386979   3.920503   3.404860   2.172927
    30  H    5.924339   4.671121   3.430613   3.861607   3.388584
                   16         17         18         19         20
    16  C    0.000000
    17  C    1.385628   0.000000
    18  C    2.448284   1.414669   0.000000
    19  H    7.611078   6.245577   5.386979   0.000000
    20  H    6.327930   4.964361   4.665013   2.512122   0.000000
    21  H    3.925377   2.605895   2.741532   4.292309   2.446608
    22  H    7.117597   5.924339   4.671121   2.446608   4.292309
    23  H    7.302692   6.353754   4.952268   4.348744   6.010657
    24  H    8.213642   7.605442   6.219742   6.795346   8.340157
    25  H    7.287191   7.102363   5.916183   8.340157   9.307468
    26  H    5.002535   5.078085   4.155013   8.061930   8.353031
    27  H    3.388584   3.861606   3.430613   8.353031   8.061930
    28  H    2.172927   3.404860   3.920504   9.307468   8.340157
    29  H    1.093866   2.151722   3.434694   8.340157   6.795346
    30  H    2.129520   1.090018   2.174064   6.010657   4.348744
                   21         22         23         24         25
    21  H    0.000000
    22  H    4.951202   0.000000
    23  H    6.127838   1.902138   0.000000
    24  H    8.061931   4.348744   2.446608   0.000000
    25  H    8.353032   6.010658   4.292309   2.512122   0.000000
    26  H    6.853340   6.127838   4.951201   4.292308   2.446608
    27  H    6.127838   6.853340   6.127838   6.010657   4.348744
    28  H    6.010658   8.353032   8.061931   8.340157   6.795346
    29  H    4.348744   8.061931   8.353031   9.307468   8.340157
    30  H    1.902138   6.127838   6.853340   8.353031   8.061931
                   26         27         28         29         30
    26  H    0.000000
    27  H    1.902138   0.000000
    28  H    4.348744   2.446608   0.000000
    29  H    6.010657   4.292308   2.512122   0.000000
    30  H    6.127838   4.951201   4.292309   2.446608   0.000000
 Framework group  D3H[SGH(C18H12)]
 Deg. of freedom    10
                         Standard orientation:                         
 ---------------------------------------------------------------------
 Center     Atomic      Atomic             Coordinates (Angstroms)
 Number     Number       Type             X           Y           Z
 ---------------------------------------------------------------------
      1          6           0        0.701612    3.705546    0.000000
      2          6           0       -0.701612    3.705546   -0.000000
      3          6           0       -1.385913    2.500681    0.000000
      4          6           0       -0.711196    1.257280    0.000000
      5          6           0        0.711196    1.257280    0.000000
      6          6           0        1.385913    2.500681    0.000000
      7          6           0        1.444434   -0.012726    0.000000
      8          6           0        2.858610   -0.050105    0.000000
      9          6           0        3.559903   -1.245159   -0.000000
     10          6           0        2.858291   -2.460387    0.000000
     11          6           0        1.472697   -2.450576   -0.000000
     12          6           0        0.733238   -1.244554   -0.000000
     13          6           0       -0.733238   -1.244554    0.000000
     14          6           0       -1.472697   -2.450576    0.000000
     15          6           0       -2.858291   -2.460387    0.000000
     16          6           0       -3.559903   -1.245159    0.000000
     17          6           0       -2.858610   -0.050105    0.000000
     18          6           0       -1.444434   -0.012726    0.000000
     19          1           0        1.256061    4.648482    0.000000
     20          1           0       -1.256061    4.648482   -0.000000
     21          1           0       -2.475601    2.527489    0.000000
     22          1           0        2.475601    2.527489    0.000000
     23          1           0        3.426670    0.880189    0.000000
     24          1           0        4.653734   -1.236460   -0.000000
     25          1           0        3.397673   -3.412022    0.000000
     26          1           0        0.951069   -3.407678   -0.000000
     27          1           0       -0.951069   -3.407678    0.000000
     28          1           0       -3.397673   -3.412022    0.000000
     29          1           0       -4.653734   -1.236460    0.000000
     30          1           0       -3.426670    0.880189    0.000000
 ---------------------------------------------------------------------
 Rotational constants (GHZ):           0.5108077           0.5108077           0.2554039
   312 basis functions,   678 primitive gaussians,   330 cartesian basis functions
    60 alpha electrons       60 beta electrons
       nuclear repulsion energy      1154.2569709134 Hartrees.
 NAtoms=   30 NActive=   30 NUniq=    5 SFac= 4.00D+00 NAtFMM=   60 NAOKFM=F Big=F
 ExpMin= 1.22D-01 ExpMax= 6.67D+03 ExpMxC= 2.28D+02 IAcc=3 IRadAn=         5 AccDes= 0.00D+00
 Harris functional with IExCor=  205 and IRadAn=       5 diagonalized for initial guess.
 HarFok:  IExCor=  205 AccDes= 0.00D+00 IRadAn=         5 IDoV= 1 UseB2=F ITyADJ=14
 ICtDFT=  3500011 ScaDFX=  1.000000  1.000000  1.000000  1.000000
 FoFCou: FMM=F IPFlag=           0 FMFlag=      100000 FMFlg1=           0
         NFxFlg=           0 DoJE=T BraDBF=F KetDBF=T FulRan=T
         wScrn=  0.000000 ICntrl=       500 IOpCl=  0 I1Cent=   200000004 NGrid=           0
         NMat0=    1 NMatS0=      1 NMatT0=    0 NMatD0=    1 NMtDS0=    0 NMtDT0=    0
 Petite list used in FoFCou.
 Initial guess orbital symmetries:
       Occupied  (E') (E') (A1') (A2') (E') (E') (A2') (E') (E')
                 (E') (E') (A1') (A1') (E') (E') (A2') (E') (E')
                 (A1') (E') (E') (A1') (E') (E') (A2') (E') (E')
                 (A1') (E') (E') (E') (E') (A2') (A1') (A1') (E')
                 (E') (E') (E') (E') (E') (A1') (E') (E') (A2')
                 (A2") (A2') (E') (E') (A1') (E") (E") (E') (E')
                 (A2") (E") (E") (A1") (E") (E")
       Virtual   (E") (E") (A2") (E") (E") (A1") (A1') (E") (E")
                 (E') (E') (E') (E') (A1') (A2') (E') (E') (A1")
                 (E') (E') (A1') (E') (E') (A2') (A1') (E') (E')
                 (E') (E') (A2') (E') (E') (E') (E') (A2') (A1')
                 (A2') (A1') (A2") (E') (E') (E') (E') (E") (E")
                 (E') (E') (A1') (E') (E') (A2') (E') (E') (E")
                 (E") (E') (E') (A2") (A1') (E') (E') (A1') (A2")
                 (A1") (A2') (E") (E") (A2') (A1') (E") (E") (E')
                 (E') (E') (E') (E") (E") (A2') (A1") (E') (E')
                 (E") (E") (A2') (E') (E') (A1') (A2") (A2") (A2')
                 (A1") (E') (E') (E') (E') (A2') (E") (E") (A1')
                 (E") (E") (E') (E') (A2") (E') (E') (E") (E")
                 (E') (E') (A2") (A1") (E") (E") (A1') (E') (E')
                 (A1') (E") (E") (A2') (E') (E') (E') (E') (A1')
                 (A2') (A2') (A1') (E') (E') (E") (E") (E') (E')
                 (A1") (E') (E') (A1') (E') (E') (A1') (A2") (E')
                 (E') (E") (E") (E") (E") (A1") (E') (E') (A1')
                 (A2') (E') (E') (A1') (E') (E') (E") (E") (A2')
                 (E') (E') (A2") (E") (E") (E') (E') (A1') (E")
                 (E") (A1") (A2") (A2') (E') (E') (E") (E") (E')
                 (E') (E') (E') (A1') (A2') (E') (E') (A1") (E")
                 (E") (A2') (A2') (E') (E') (A1') (A2") (E') (E')
                 (A2') (E') (E') (E") (E") (A1') (A1") (A2') (E')
                 (E') (E') (E') (E') (E') (E") (E") (E") (E") (E')
                 (E') (A2') (A1') (A1") (E') (E') (A1') (A1") (E')
                 (E') (E') (E') (A2') (E') (E') (A1') (A2') (E')
                 (E') (E') (E') (E') (E') (A2') (E') (E') (A1')
                 (A2') (E') (E') (A2') (A2') (E') (E') (A2')
 The electronic state of the initial guess is 1-A1'.
 Integral accuracy reduced to 1.0D-05 until final iterations.
 Initial convergence to 1.0D-05 achieved.  Increase integral accuracy.
 SCF Done:  E(RHF) =  -688.707215668     A.U. after   15 cycles
            NFock= 15  Conv=0.86D-08     -V/T= 2.0013
 ExpMin= 1.22D-01 ExpMax= 6.67D+03 ExpMxC= 2.28D+02 IAcc=3 IRadAn=         5 AccDes= 0.00D+00
 HarFok:  IExCor=  205 AccDes= 0.00D+00 IRadAn=         5 IDoV=-2 UseB2=F ITyADJ=14
 ICtDFT= 12500011 ScaDFX=  1.000000  1.000000  1.000000  1.000000
 NROrb=    294 NOA=    42 NOB=    42 NVA=   252 NVB=   252

 **** Warning!!: The largest alpha MO coefficient is  0.21381654D+02

 Estimated scratch disk usage=   787681392 words.
 Actual    scratch disk usage=   617943152 words.
 (rs|ai) integrals will be sorted in core.
 ANorm=    0.1380972803D+01
 E2 =    -0.2331438712D+01 EUMP2 =    -0.69103865438060D+03

 **********************************************************************

            Population analysis using the SCF Density.

 **********************************************************************

 Orbital symmetries:
       Occupied  (A1') (E') (E') (E') (E') (A2') (E') (E') (A1')
                 (A2') (E') (E') (E') (E') (A1') (A2') (E') (E')
                 (A1') (E') (E') (A1') (E') (E') (A2') (E') (E')
                 (A1') (E') (E') (E') (E') (A2') (A1') (E') (E')
                 (A1') (E') (E') (E') (E') (E') (E') (A1') (A2')
                 (A2") (A2') (A1') (E') (E') (E") (E") (E') (E')
                 (A2") (E") (E") (A1") (E") (E")
       Virtual   (E") (E") (A2") (E") (E") (A1') (E') (E') (A1")
                 (E') (E') (A2') (A1') (E') (E') (E') (E') (E")
                 (E") (A2') (E') (E') (A1') (A1') (E') (E') (E')
                 (E') (A1") (A2') (E') (E') (A1') (E') (E') (A1')
                 (A2') (A2') (A2") (E') (E') (A1') (E") (E") (E')
                 (E') (E') (E') (E") (E") (A2") (E') (E') (E')
                 (E') (A1') (A2') (E') (E') (A1") (A1') (E') (E')
                 (A2') (A2") (E") (E") (E") (E") (A1') (A2') (E")
                 (E") (E') (E') (E') (E') (A1") (E') (E') (A2')
                 (A1') (E") (E") (E') (E') (A2") (A2') (A2") (A1")
                 (A2') (E') (E') (E') (E') (E') (E') (E") (E")
                 (A1') (E") (E") (A2') (E') (E') (A2") (E') (E')
                 (E") (E") (A1') (E') (E') (A1") (E") (E") (A2")
                 (A2') (A1') (E') (E') (E") (E") (E') (E') (A2')
                 (A1') (A2') (A1') (E') (E') (E") (E") (E') (E')
                 (A1") (E') (E') (E') (E') (A2") (A1') (A1') (E")
                 (E") (A1") (E") (E") (E') (E') (E') (E') (A2')
                 (A1') (E') (E') (E") (E") (A1') (E') (E') (A2")
                 (E") (E") (A2') (E') (E') (A1') (E') (E') (A1")
                 (A2') (E") (E") (E') (E') (A2") (E') (E') (E")
                 (E") (A2') (A1') (A2') (E') (E') (E") (E") (A1")
                 (A2') (E') (E') (E') (E') (A2") (A1') (E') (E')
                 (A2') (E') (E') (E") (E") (A1") (A1') (A2') (E')
                 (E') (E') (E') (E') (E') (E") (E") (E") (E") (E')
                 (E') (A2') (A1') (A1") (E') (E') (A1") (A1') (E')
                 (E') (E') (E') (A2') (E') (E') (A1') (A2') (E')
                 (E') (E') (E') (E') (E') (A2') (E') (E') (A1')
                 (A2') (E') (E') (A2') (A2') (E') (E') (A2')
 The electronic state is 1-A1'.
 Alpha  occ. eigenvalues --  -11.25534 -11.25492 -11.25492 -11.25397 -11.25397
 Alpha  occ. eigenvalues --  -11.25352 -11.24426 -11.24426 -11.24426 -11.24369
 Alpha  occ. eigenvalues --  -11.24369 -11.24369 -11.24288 -11.24288 -11.24287
 Alpha  occ. eigenvalues --  -11.24235 -11.24235 -11.24235  -1.19283  -1.14532
 Alpha  occ. eigenvalues --   -1.14532  -1.06999  -1.04902  -1.04902  -0.99612
 Alpha  occ. eigenvalues --   -0.98209  -0.98209  -0.86998  -0.85357  -0.85357
 Alpha  occ. eigenvalues --   -0.80085  -0.80085  -0.76022  -0.73058  -0.67808
 Alpha  occ. eigenvalues --   -0.67808  -0.66545  -0.64502  -0.64502  -0.59896
 Alpha  occ. eigenvalues --   -0.59896  -0.58911  -0.58911  -0.58169  -0.58072
 Alpha  occ. eigenvalues --   -0.55304  -0.53359  -0.51317  -0.51093  -0.51093
 Alpha  occ. eigenvalues --   -0.49337  -0.49337  -0.46641  -0.46641  -0.39339
 Alpha  occ. eigenvalues --   -0.37443  -0.37443  -0.31743  -0.28437  -0.28437
 Alpha virt. eigenvalues --    0.08533   0.08533   0.09750   0.17294   0.17294
 Alpha virt. eigenvalues --    0.18326   0.18798   0.18798   0.20717   0.21531
 Alpha virt. eigenvalues --    0.21531   0.23718   0.23787   0.25360   0.25360
 Alpha virt. eigenvalues --    0.32743   0.32743   0.33660   0.33660   0.34028
 Alpha virt. eigenvalues --    0.39551   0.39551   0.41120   0.44181   0.44660
 Alpha virt. eigenvalues --    0.44660   0.45491   0.45491   0.45621   0.47603
 Alpha virt. eigenvalues --    0.49876   0.49876   0.57074   0.57308   0.57308
 Alpha virt. eigenvalues --    0.61588   0.63269   0.63824   0.65788   0.66616
 Alpha virt. eigenvalues --    0.66616   0.67982   0.67999   0.67999   0.68247
 Alpha virt. eigenvalues --    0.68247   0.70770   0.70770   0.71202   0.71202
 Alpha virt. eigenvalues --    0.71949   0.72579   0.72579   0.74005   0.74005
 Alpha virt. eigenvalues --    0.74014   0.74247   0.75686   0.75686   0.76135
 Alpha virt. eigenvalues --    0.77203   0.77323   0.77323   0.77678   0.77845
 Alpha virt. eigenvalues --    0.79318   0.79318   0.84812   0.84812   0.84973
 Alpha virt. eigenvalues --    0.87101   0.88415   0.88415   0.88503   0.88503
 Alpha virt. eigenvalues --    0.90175   0.90175   0.91340   0.93904   0.93904
 Alpha virt. eigenvalues --    0.93929   0.95706   0.95746   0.95746   0.96580
 Alpha virt. eigenvalues --    0.96580   1.00935   1.03567   1.08311   1.09351
 Alpha virt. eigenvalues --    1.10316   1.11878   1.11878   1.12669   1.12669
 Alpha virt. eigenvalues --    1.14284   1.14284   1.14662   1.14662   1.15585
 Alpha virt. eigenvalues --    1.16715   1.16715   1.18461   1.18910   1.18910
 Alpha virt. eigenvalues --    1.20104   1.21472   1.21472   1.23100   1.23100
 Alpha virt. eigenvalues --    1.24242   1.24295   1.24295   1.27841   1.27930
 Alpha virt. eigenvalues --    1.27930   1.28197   1.30112   1.31230   1.31278
 Alpha virt. eigenvalues --    1.31278   1.33920   1.33920   1.35544   1.35544
 Alpha virt. eigenvalues --    1.40705   1.41900   1.44026   1.54317   1.56560
 Alpha virt. eigenvalues --    1.56560   1.61546   1.61546   1.61801   1.61801
 Alpha virt. eigenvalues --    1.62205   1.65433   1.65433   1.66983   1.66983
 Alpha virt. eigenvalues --    1.70047   1.70644   1.72350   1.74268   1.74268
 Alpha virt. eigenvalues --    1.75471   1.75754   1.75754   1.76410   1.76410
 Alpha virt. eigenvalues --    1.80249   1.80249   1.82330   1.84931   1.87738
 Alpha virt. eigenvalues --    1.87738   1.88131   1.88131   1.89208   1.89855
 Alpha virt. eigenvalues --    1.89855   1.90489   1.91259   1.91259   1.91795
 Alpha virt. eigenvalues --    1.94324   1.94324   1.95667   1.96295   1.96295
 Alpha virt. eigenvalues --    1.97208   1.98932   2.00340   2.00340   2.02474
 Alpha virt. eigenvalues --    2.02474   2.03843   2.04535   2.04535   2.05752
 Alpha virt. eigenvalues --    2.05752   2.07671   2.11682   2.13700   2.13821
 Alpha virt. eigenvalues --    2.13821   2.14037   2.14037   2.14751   2.15759
 Alpha virt. eigenvalues --    2.15901   2.15901   2.17853   2.17853   2.18233
 Alpha virt. eigenvalues --    2.19816   2.21657   2.21657   2.26217   2.26353
 Alpha virt. eigenvalues --    2.26353   2.28133   2.28133   2.30323   2.30839
 Alpha virt. eigenvalues --    2.32275   2.32766   2.32766   2.39348   2.39348
 Alpha virt. eigenvalues --    2.41676   2.41676   2.45329   2.45329   2.48543
 Alpha virt. eigenvalues --    2.48543   2.55080   2.55080   2.57021   2.63008
 Alpha virt. eigenvalues --    2.66696   2.66885   2.66885   2.69350   2.71605
 Alpha virt. eigenvalues --    2.73007   2.73007   2.76749   2.76749   2.78241
 Alpha virt. eigenvalues --    2.81028   2.81028   2.83917   2.94794   2.98413
 Alpha virt. eigenvalues --    2.98413   3.01284   3.01284   3.05943   3.05943
 Alpha virt. eigenvalues --    3.06414   3.11909   3.11909   3.15131   3.25835
 Alpha virt. eigenvalues --    3.32420   3.32420   3.37641   3.65610   3.81648
 Alpha virt. eigenvalues --    3.81648   4.02714
          Condensed to atoms (all electrons):
 Mulliken charges:
               1
     1  C    0.010260
     2  C    0.010260
     3  C   -0.021019
     4  C   -0.040357
     5  C   -0.040357
     6  C   -0.021019
     7  C   -0.040357
     8  C   -0.021019
     9  C    0.010260
    10  C    0.010260
    11  C   -0.021019
    12  C   -0.040357
    13  C   -0.040357
    14  C   -0.021019
    15  C    0.010260
    16  C    0.010260
    17  C   -0.021019
    18  C   -0.040357
    19  H    0.025774
    20  H    0.025774
    21  H    0.025342
    22  H    0.025342
    23  H    0.025342
    24  H    0.025774
    25  H    0.025774
    26  H    0.025342
    27  H    0.025342
    28  H    0.025774
    29  H    0.025774
    30  H    0.025342
 Sum of Mulliken charges =  -0.00000
 Mulliken charges with hydrogens summed into heavy atoms:
               1
     1  C    0.036034
     2  C    0.036034
     3  C    0.004323
     4  C   -0.040357
     5  C   -0.040357
     6  C    0.004323
     7  C   -0.040357
     8  C    0.004323
     9  C    0.036034
    10  C    0.036034
    11  C    0.004323
    12  C   -0.040357
    13  C   -0.040357
    14  C    0.004323
    15  C    0.036034
    16  C    0.036034
    17  C    0.004323
    18  C   -0.040357
 Electronic spatial extent (au):  <R**2>=           4131.2916
 Charge=             -0.0000 electrons
 Dipole moment (field-independent basis, Debye):
    X=              0.0000    Y=              0.0000    Z=             -0.0000  Tot=              0.0000
 Unable to Open any file for archive entry.
 1\1\GINC-NODE03\SP\RMP2-FC\CC-pVDZ\C18H12\XUHJ\15-Mar-2024\0\\#T MP2/c
 c-pVDZ symm=veryloose\\c1ccc2c(c1)c1ccccc1c1ccccc21\\0,1\C,0,0.701612,
 3.705546,0.\C,0,-0.701612,3.705546,0.\C,0,-1.385913,2.500681,0.\C,0,-0
 .711196,1.25728,0.\C,0,0.711196,1.25728,0.\C,0,1.385913,2.500681,0.\C,
 0,1.444435,-0.012726,0.\C,0,2.85861,-0.050105,0.\C,0,3.559903,-1.24515
 9,0.\C,0,2.858291,-2.460387,0.\C,0,1.472697,-2.450576,0.\C,0,0.733239,
 -1.244554,0.\C,0,-0.733239,-1.244554,0.\C,0,-1.472697,-2.450576,0.\C,0
 ,-2.858291,-2.460387,0.\C,0,-3.559903,-1.245159,0.\C,0,-2.85861,-0.050
 105,0.\C,0,-1.444435,-0.012726,0.\H,0,1.256061,4.648482,0.\H,0,-1.2560
 61,4.648482,0.\H,0,-2.475601,2.527489,0.\H,0,2.475601,2.527489,0.\H,0,
 3.42667,0.880189,0.\H,0,4.653734,-1.23646,0.\H,0,3.397673,-3.412022,0.
 \H,0,0.951069,-3.407677,0.\H,0,-0.951069,-3.407677,0.\H,0,-3.397673,-3
 .412022,0.\H,0,-4.653734,-1.23646,0.\H,0,-3.42667,0.880189,0.\\Version
 =ES64L-G16RevC.01\State=1-A1'\HF=-688.7072157\MP2=-691.0386544\RMSD=8.
 643e-09\PG=D03H [SGH(C18H12)]\\@
 The archive entry for this job was punched.


 HONESTY IN A LAWYER IS LIKE A HEN'S HIND LEGS.
  -- MAGNUS OLESON, LAKE WOBEGON PATRIARCH, C.1875
 Job cpu time:       0 days  0 hours  4 minutes 40.6 seconds.
 Elapsed time:       0 days  0 hours  0 minutes 37.7 seconds.
 File lengths (MBytes):  RWF=   4787 Int=      0 D2E=      0 Chk=      8 Scr=      2
 Normal termination of Gaussian 16 at Fri Mar 15 11:45:39 2024.
