 Entering Gaussian System, Link 0=g16
 Initial command:
 /opt/g16/l1.exe "/tmp/Gau-2566816.inp" -scrdir="/tmp/"
 Entering Link 1 = /opt/g16/l1.exe PID=   2566818.
  
 Copyright (c) 1988-2019, Gaussian, Inc.  All Rights Reserved.
  
 This is part of the Gaussian(R) 16 program.  It is based on
 the Gaussian(R) 09 system (copyright 2009, Gaussian, Inc.),
 the Gaussian(R) 03 system (copyright 2003, Gaussian, Inc.),
 the Gaussian(R) 98 system (copyright 1998, Gaussian, Inc.),
 the Gaussian(R) 94 system (copyright 1995, Gaussian, Inc.),
 the Gaussian 92(TM) system (copyright 1992, Gaussian, Inc.),
 the Gaussian 90(TM) system (copyright 1990, Gaussian, Inc.),
 the Gaussian 88(TM) system (copyright 1988, Gaussian, Inc.),
 the Gaussian 86(TM) system (copyright 1986, Carnegie Mellon
 University), and the Gaussian 82(TM) system (copyright 1983,
 Carnegie Mellon University). Gaussian is a federally registered
 trademark of Gaussian, Inc.
  
 This software contains proprietary and confidential information,
 including trade secrets, belonging to Gaussian, Inc.
  
 This software is provided under written license and may be
 used, copied, transmitted, or stored only in accord with that
 written license.
  
 The following legend is applicable only to US Government
 contracts under FAR:
  
                    RESTRICTED RIGHTS LEGEND
  
 Use, reproduction and disclosure by the US Government is
 subject to restrictions as set forth in subparagraphs (a)
 and (c) of the Commercial Computer Software - Restricted
 Rights clause in FAR 52.227-19.
  
 Gaussian, Inc.
 340 Quinnipiac St., Bldg. 40, Wallingford CT 06492
  
  
 ---------------------------------------------------------------
 Warning -- This program may not be used in any manner that
 competes with the business of Gaussian, Inc. or will provide
 assistance to any competitor of Gaussian, Inc.  The licensee
 of this program is prohibited from giving any competitor of
 Gaussian, Inc. access to this program.  By using this program,
 the user acknowledges that Gaussian, Inc. is engaged in the
 business of creating and licensing software in the field of
 computational chemistry and represents and warrants to the
 licensee that it is not a competitor of Gaussian, Inc. and that
 it will not use this program in any manner prohibited above.
 ---------------------------------------------------------------
  

 Cite this work as:
 Gaussian 16, Revision C.01,
 M. J. Frisch, G. W. Trucks, H. B. Schlegel, G. E. Scuseria, 
 M. A. Robb, J. R. Cheeseman, G. Scalmani, V. Barone, 
 G. A. Petersson, H. Nakatsuji, X. Li, M. Caricato, A. V. Marenich, 
 J. Bloino, B. G. Janesko, R. Gomperts, B. Mennucci, H. P. Hratchian, 
 J. V. Ortiz, A. F. Izmaylov, J. L. Sonnenberg, D. Williams-Young, 
 F. Ding, F. Lipparini, F. Egidi, J. Goings, B. Peng, A. Petrone, 
 T. Henderson, D. Ranasinghe, V. G. Zakrzewski, J. Gao, N. Rega, 
 G. Zheng, W. Liang, M. Hada, M. Ehara, K. Toyota, R. Fukuda, 
 J. Hasegawa, M. Ishida, T. Nakajima, Y. Honda, O. Kitao, H. Nakai, 
 T. Vreven, K. Throssell, J. A. Montgomery, Jr., J. E. Peralta, 
 F. Ogliaro, M. J. Bearpark, J. J. Heyd, E. N. Brothers, K. N. Kudin, 
 V. N. Staroverov, T. A. Keith, R. Kobayashi, J. Normand, 
 K. Raghavachari, A. P. Rendell, J. C. Burant, S. S. Iyengar, 
 J. Tomasi, M. Cossi, J. M. Millam, M. Klene, C. Adamo, R. Cammi, 
 J. W. Ochterski, R. L. Martin, K. Morokuma, O. Farkas, 
 J. B. Foresman, and D. J. Fox, Gaussian, Inc., Wallingford CT, 2019.
 
 ******************************************
 Gaussian 16:  ES64L-G16RevC.01  3-Jul-2019
                11-Oct-2024 
 ******************************************
 %nprocshared=8
 Will use up to    8 processors via shared memory.
 %mem=7200MB
 -----------------------------
 #T MP2/cc-pVDZ symm=veryloose
 -----------------------------
 ----------------------------
 c1ccc2c(c1)ccc1ccc3ccccc3c12
 ----------------------------
 Symbolic Z-matrix:
 Charge =  0 Multiplicity = 1
 C                     0.        3.85526  -1.52121 
 C                     0.38997   2.70868  -2.24344 
 C                     0.40271   1.46472  -1.6362 
 C                     0.02213   1.28784  -0.27725 
 C                    -0.2552    2.47778   0.47541 
 C                    -0.29655   3.7356   -0.17758 
 C                    -0.413     2.39884   1.89389 
 C                    -0.22545   1.2137    2.54359 
 C                     0.        0.        1.81957 
 C                     0.22545  -1.2137    2.54359 
 C                     0.413    -2.39884   1.89389 
 C                     0.2552   -2.47778   0.47541 
 C                     0.29655  -3.7356   -0.17758 
 C                     0.       -3.85526  -1.52121 
 C                    -0.38997  -2.70868  -2.24344 
 C                    -0.40271  -1.46472  -1.6362 
 C                    -0.02213  -1.28784  -0.27725 
 C                     0.        0.        0.40009 
 H                    -0.02602   4.83331  -2.01038 
 H                     0.70422   2.80128  -3.28733 
 H                     0.77033   0.61463  -2.20792 
 H                    -0.54001   4.62167   0.41695 
 H                    -0.62675   3.31612   2.45063 
 H                    -0.26765   1.16402   3.63578 
 H                     0.26765  -1.16402   3.63578 
 H                     0.62675  -3.31612   2.45063 
 H                     0.54001  -4.62167   0.41695 
 H                     0.02602  -4.83331  -2.01038 
 H                    -0.70422  -2.80128  -3.28733 
 H                    -0.77033  -0.61463  -2.20792 
 
                    Distance matrix (angstroms):
                    1          2          3          4          5
     1  C    0.000000
     2  C    1.410084   0.000000
     3  C    2.426949   1.384317   0.000000
     4  C    2.852993   2.453566   1.422280   0.000000
     5  C    2.439072   2.803870   2.432700   1.435044   0.000000
     6  C    1.381153   2.406992   2.788084   2.470426   1.417825
     7  C    3.735591   4.225905   3.741597   2.477404   1.429416
     8  C    4.852963   5.052657   4.234178   2.832655   2.424075
     9  C    5.101354   4.898677   3.774907   2.460826   2.830416
    10  C    6.501368   6.190945   4.967498   3.775737   4.258566
    11  C    7.137737   6.573039   5.233431   4.296309   5.122497
    12  C    6.645220   5.857442   4.474812   3.847164   4.981764
    13  C    7.714558   6.767955   5.402051   5.031915   6.271907
    14  C    7.710522   6.615061   5.336442   5.291447   6.645220
    15  C    6.615061   5.473217   4.291196   4.473019   5.857442
    16  C    5.336442   4.291196   3.038148   3.099005   4.474812
    17  C    5.291447   4.473019   3.099005   2.576060   3.847164
    18  C    4.307485   3.804901   2.540487   1.455271   2.492021
    19  H    1.093869   2.177480   3.416318   3.946698   3.432233
    20  H    2.173934   1.094090   2.145576   3.437483   3.896577
    21  H    3.400978   2.128608   1.088418   2.177269   3.423925
    22  H    2.153011   3.406179   3.882072   3.451423   2.163517
    23  H    4.056963   4.841172   4.603222   3.460678   2.177697
    24  H    5.823136   6.114216   5.322932   3.925698   3.422578
    25  H    7.201345   7.041165   5.892566   4.624253   4.850155
    26  H    8.221742   7.641243   6.293556   5.385477   6.184543
    27  H    8.712426   7.799627   6.424827   5.972636   7.144077
    28  H    8.702372   7.554366   6.320375   6.361781   7.727239
    29  H    6.922759   5.713718   4.706405   5.129231   6.498321
    30  H    4.587477   3.520224   2.454916   2.823985   4.126575
                    6          7          8          9         10
     6  C    0.000000
     7  C    2.468095   0.000000
     8  C    3.710769   1.364493   0.000000
     9  C    4.246321   2.435269   1.431121   0.000000
    10  C    5.672109   3.725612   2.468923   1.431121   0.000000
    11  C    6.513511   4.868269   3.725612   2.435269   1.364493
    12  C    6.271907   5.122497   4.258566   2.830416   2.424075
    13  C    7.494700   6.513511   5.672109   4.246321   3.710769
    14  C    7.714558   7.137737   6.501368   5.101354   4.852963
    15  C    6.767955   6.573039   6.190945   4.898677   5.052657
    16  C    5.402051   5.233431   4.967498   3.774907   4.234178
    17  C    5.031915   4.296309   3.775737   2.460826   2.832655
    18  C    3.791614   2.855951   2.473558   1.419476   2.473558
    19  H    2.153439   4.617330   5.820652   6.166852   7.574182
    20  H    3.397792   5.315559   6.114267   5.867148   7.095692
    21  H    3.873101   4.626937   4.891555   4.146304   5.120212
    22  H    1.094471   2.671784   4.029362   4.859911   6.257796
    23  H    2.681880   1.094096   2.142398   3.433326   4.610227
    24  H    4.599518   2.140110   1.094133   2.173756   2.662629
    25  H    6.234288   4.023861   2.662629   2.173756   1.094133
    26  H    7.582001   5.835397   4.610227   3.433326   2.142398
    27  H    8.420045   7.237203   6.257796   4.859911   4.029362
    28  H    8.768661   8.230439   7.574182   6.166852   5.820652
    29  H    7.250339   7.346500   7.095692   5.867148   6.114267
    30  H    4.824030   5.102313   5.120212   4.146304   4.891555
                   11         12         13         14         15
    11  C    0.000000
    12  C    1.429416   0.000000
    13  C    2.468095   1.417825   0.000000
    14  C    3.735591   2.439072   1.381153   0.000000
    15  C    4.225905   2.803870   2.406992   1.410084   0.000000
    16  C    3.741597   2.432700   2.788084   2.426949   1.384317
    17  C    2.477404   1.435044   2.470426   2.852993   2.453566
    18  C    2.855951   2.492021   3.791614   4.307485   3.804901
    19  H    8.230439   7.727239   8.768661   8.702372   7.554366
    20  H    7.346500   6.498321   7.250339   6.922759   5.713718
    21  H    5.102313   4.126575   4.824030   4.587477   3.520224
    22  H    7.237203   7.144077   8.420045   8.712426   7.799627
    23  H    5.835397   6.184543   7.582001   8.221742   7.641243
    24  H    4.023861   4.850155   6.234288   7.201345   7.041165
    25  H    2.140110   3.422578   4.599518   5.823136   6.114216
    26  H    1.094096   2.177697   2.681880   4.056963   4.841172
    27  H    2.671784   2.163517   1.094471   2.153011   3.406179
    28  H    4.617330   3.432233   2.153439   1.093869   2.177480
    29  H    5.315559   3.896577   3.397792   2.173934   1.094090
    30  H    4.626937   3.423925   3.873101   3.400978   2.128608
                   16         17         18         19         20
    16  C    0.000000
    17  C    1.422280   0.000000
    18  C    2.540487   1.455271   0.000000
    19  H    6.320375   6.361781   5.401106   0.000000
    20  H    4.706405   5.129231   4.684028   2.508589   0.000000
    21  H    2.454916   2.823985   2.787993   4.297725   2.439444
    22  H    6.424827   5.972636   4.653138   2.490165   4.310873
    23  H    6.293556   5.385477   3.948948   4.750084   5.912753
    24  H    5.892566   4.624253   3.449097   6.738039   7.180148
    25  H    5.322932   3.925698   3.449097   8.242170   7.990217
    26  H    4.603222   3.460678   3.948948   9.313430   8.387650
    27  H    3.882072   3.451423   4.653138   9.777983   8.297513
    28  H    3.416318   3.946698   5.401106   9.666766   7.770297
    29  H    2.145576   3.437483   4.684028   7.770297   5.776878
    30  H    1.088418   2.177269   2.787993   5.502105   3.873999
                   21         22         23         24         25
    21  H    0.000000
    22  H    4.966213   0.000000
    23  H    5.563447   2.418220   0.000000
    24  H    5.960543   4.731841   2.482957   0.000000
    25  H    6.129041   6.669884   4.719773   2.388796   0.000000
    26  H    6.097010   8.276815   6.749664   4.719773   2.482957
    27  H    5.861898   9.306215   8.276815   6.669884   4.731841
    28  H    5.502105   9.777983   9.313430   8.242170   6.738039
    29  H    3.873999   8.297513   8.387650   7.990217   7.180148
    30  H    1.970976   5.861898   6.097010   6.129041   5.960543
                   26         27         28         29         30
    26  H    0.000000
    27  H    2.418220   0.000000
    28  H    4.750084   2.490165   0.000000
    29  H    5.912753   4.310873   2.508589   0.000000
    30  H    5.563447   4.966213   4.297725   2.439444   0.000000
 Framework group  C2[C2(CC),X(C16H12)]
 Deg. of freedom    42
                         Standard orientation:                         
 ---------------------------------------------------------------------
 Center     Atomic      Atomic             Coordinates (Angstroms)
 Number     Number       Type             X           Y           Z
 ---------------------------------------------------------------------
      1          6           0        0.000000    3.855261   -1.521207
      2          6           0        0.389966    2.708681   -2.243438
      3          6           0        0.402713    1.464721   -1.636202
      4          6           0        0.022130    1.287840   -0.277250
      5          6           0       -0.255196    2.477775    0.475410
      6          6           0       -0.296545    3.735598   -0.177583
      7          6           0       -0.412999    2.398842    1.893894
      8          6           0       -0.225445    1.213701    2.543591
      9          6           0        0.000000    0.000000    1.819567
     10          6           0        0.225445   -1.213701    2.543591
     11          6           0        0.412999   -2.398842    1.893894
     12          6           0        0.255196   -2.477775    0.475410
     13          6           0        0.296545   -3.735598   -0.177583
     14          6           0       -0.000000   -3.855261   -1.521207
     15          6           0       -0.389966   -2.708681   -2.243438
     16          6           0       -0.402713   -1.464721   -1.636202
     17          6           0       -0.022130   -1.287840   -0.277250
     18          6           0        0.000000    0.000000    0.400091
     19          1           0       -0.026015    4.833313   -2.010377
     20          1           0        0.704224    2.801276   -3.287325
     21          1           0        0.770332    0.614634   -2.207920
     22          1           0       -0.540011    4.621666    0.416954
     23          1           0       -0.626749    3.316124    2.450627
     24          1           0       -0.267652    1.164023    3.635780
     25          1           0        0.267652   -1.164023    3.635780
     26          1           0        0.626749   -3.316124    2.450627
     27          1           0        0.540011   -4.621666    0.416954
     28          1           0        0.026015   -4.833313   -2.010377
     29          1           0       -0.704224   -2.801276   -3.287325
     30          1           0       -0.770332   -0.614634   -2.207920
 ---------------------------------------------------------------------
 Rotational constants (GHZ):           0.8025320           0.3529946           0.2498323
   312 basis functions,   678 primitive gaussians,   330 cartesian basis functions
    60 alpha electrons       60 beta electrons
       nuclear repulsion energy      1151.2496347222 Hartrees.
 NAtoms=   30 NActive=   30 NUniq=   16 SFac= 3.52D+00 NAtFMM=   60 NAOKFM=F Big=F
 ExpMin= 1.22D-01 ExpMax= 6.67D+03 ExpMxC= 2.28D+02 IAcc=3 IRadAn=         5 AccDes= 0.00D+00
 Harris functional with IExCor=  205 and IRadAn=       5 diagonalized for initial guess.
 HarFok:  IExCor=  205 AccDes= 0.00D+00 IRadAn=         5 IDoV= 1 UseB2=F ITyADJ=14
 ICtDFT=  3500011 ScaDFX=  1.000000  1.000000  1.000000  1.000000
 FoFCou: FMM=F IPFlag=           0 FMFlag=      100000 FMFlg1=           0
         NFxFlg=           0 DoJE=T BraDBF=F KetDBF=T FulRan=T
         wScrn=  0.000000 ICntrl=       500 IOpCl=  0 I1Cent=   200000004 NGrid=           0
         NMat0=    1 NMatS0=      1 NMatT0=    0 NMatD0=    1 NMtDS0=    0 NMtDT0=    0
 Petite list used in FoFCou.
 Initial guess orbital symmetries:
       Occupied  (B) (A) (B) (A) (A) (B) (B) (A) (A) (B) (A) (B)
                 (A) (B) (A) (A) (B) (A) (A) (B) (A) (B) (A) (A)
                 (B) (B) (A) (A) (B) (A) (B) (A) (B) (B) (A) (A)
                 (B) (A) (B) (A) (B) (A) (A) (B) (B) (B) (A) (B)
                 (A) (B) (A) (B) (A) (B) (A) (B) (B) (A) (A) (B)
       Virtual   (B) (A) (A) (B) (B) (A) (B) (A) (A) (B) (A) (B)
                 (A) (B) (B) (A) (A) (B) (A) (B) (A) (B) (A) (B)
                 (B) (A) (A) (B) (A) (B) (A) (B) (A) (B) (A) (B)
                 (A) (A) (B) (B) (A) (B) (A) (A) (B) (B) (B) (A)
                 (B) (A) (A) (B) (A) (A) (B) (B) (A) (B) (A) (B)
                 (B) (A) (A) (B) (A) (B) (A) (A) (B) (B) (A) (B)
                 (A) (B) (B) (A) (A) (B) (B) (A) (B) (A) (A) (B)
                 (A) (B) (A) (A) (B) (B) (B) (A) (A) (B) (A) (A)
                 (B) (A) (B) (B) (B) (A) (B) (A) (A) (A) (B) (B)
                 (A) (A) (B) (B) (A) (A) (B) (B) (A) (A) (B) (B)
                 (A) (A) (B) (B) (A) (B) (A) (A) (B) (B) (A) (B)
                 (B) (A) (A) (B) (B) (A) (A) (B) (A) (B) (A) (A)
                 (B) (A) (B) (A) (B) (B) (B) (A) (A) (B) (A) (B)
                 (A) (B) (B) (A) (B) (B) (A) (A) (B) (A) (A) (B)
                 (A) (B) (A) (B) (A) (B) (B) (A) (A) (B) (A) (B)
                 (A) (A) (B) (A) (B) (A) (B) (A) (B) (B) (B) (A)
                 (B) (A) (A) (B) (A) (B) (A) (B) (B) (A) (A) (B)
                 (A) (B) (A) (B) (A) (B) (A) (B) (A) (B) (A) (A)
                 (B) (B) (A) (A) (B) (B) (A) (B) (A) (B) (A) (B)
                 (A) (B) (A) (A) (B) (B) (A) (B) (B) (A) (A) (A)
                 (B) (A) (B) (B) (A) (B) (A) (A) (A) (B) (A) (B)
 The electronic state of the initial guess is 1-A.
 Integral accuracy reduced to 1.0D-05 until final iterations.
 Initial convergence to 1.0D-05 achieved.  Increase integral accuracy.
 SCF Done:  E(RHF) =  -688.695605076     A.U. after   16 cycles
            NFock= 16  Conv=0.41D-08     -V/T= 2.0013
 ExpMin= 1.22D-01 ExpMax= 6.67D+03 ExpMxC= 2.28D+02 IAcc=3 IRadAn=         5 AccDes= 0.00D+00
 HarFok:  IExCor=  205 AccDes= 0.00D+00 IRadAn=         5 IDoV=-2 UseB2=F ITyADJ=14
 ICtDFT= 12500011 ScaDFX=  1.000000  1.000000  1.000000  1.000000
 NROrb=    294 NOA=    42 NOB=    42 NVA=   252 NVB=   252

 **** Warning!!: The largest alpha MO coefficient is  0.19099902D+02

 Estimated scratch disk usage=   833612416 words.
 Actual    scratch disk usage=   627623552 words.
 (rs|ai) integrals will be sorted in core.
 ANorm=    0.1382689719D+01
 E2 =    -0.2334663478D+01 EUMP2 =    -0.69103026855335D+03

 **********************************************************************

            Population analysis using the SCF Density.

 **********************************************************************

 Orbital symmetries:
       Occupied  (A) (B) (A) (A) (B) (A) (B) (A) (B) (A) (B) (A)
                 (B) (A) (B) (A) (B) (A) (A) (B) (A) (B) (A) (A)
                 (B) (B) (A) (A) (B) (A) (B) (A) (B) (A) (B) (A)
                 (A) (B) (B) (A) (B) (A) (A) (B) (B) (A) (B) (B)
                 (A) (A) (B) (B) (A) (B) (A) (B) (A) (B) (A) (B)
       Virtual   (B) (A) (A) (B) (A) (B) (B) (A) (B) (A) (A) (A)
                 (B) (B) (A) (B) (A) (B) (B) (A) (A) (B) (A) (B)
                 (A) (B) (A) (A) (B) (A) (B) (A) (B) (B) (A) (B)
                 (A) (B) (A) (B) (B) (A) (A) (B) (A) (B) (A) (B)
                 (A) (B) (A) (B) (B) (A) (A) (A) (B) (B) (A) (B)
                 (A) (B) (A) (B) (A) (A) (B) (A) (B) (B) (B) (A)
                 (A) (B) (A) (B) (A) (B) (A) (B) (A) (B) (A) (B)
                 (A) (A) (B) (A) (B) (B) (B) (A) (A) (B) (A) (A)
                 (B) (B) (A) (B) (B) (A) (B) (A) (B) (A) (B) (A)
                 (A) (A) (B) (B) (A) (B) (A) (A) (A) (B) (A) (B)
                 (B) (A) (B) (B) (A) (B) (A) (A) (B) (B) (A) (B)
                 (B) (A) (A) (B) (B) (A) (A) (B) (A) (B) (A) (B)
                 (A) (A) (A) (B) (B) (B) (A) (B) (A) (B) (A) (B)
                 (B) (A) (B) (B) (A) (A) (B) (A) (B) (A) (A) (B)
                 (B) (A) (A) (B) (A) (B) (A) (B) (A) (B) (B) (A)
                 (A) (B) (A) (A) (B) (A) (B) (A) (B) (B) (A) (B)
                 (B) (A) (B) (A) (B) (A) (B) (A) (A) (B) (A) (B)
                 (A) (B) (A) (B) (A) (B) (A) (B) (A) (A) (B) (A)
                 (B) (B) (A) (A) (B) (B) (A) (B) (A) (B) (A) (A)
                 (B) (B) (A) (A) (B) (B) (A) (A) (B) (B) (A) (B)
                 (A) (A) (B) (B) (A) (A) (B) (A) (A) (B) (A) (B)
 The electronic state is 1-A.
 Alpha  occ. eigenvalues --  -11.25861 -11.25611 -11.25595 -11.25221 -11.25077
 Alpha  occ. eigenvalues --  -11.25077 -11.24535 -11.24532 -11.24429 -11.24429
 Alpha  occ. eigenvalues --  -11.24391 -11.24386 -11.24339 -11.24339 -11.24261
 Alpha  occ. eigenvalues --  -11.24261 -11.24156 -11.24155  -1.19156  -1.15940
 Alpha  occ. eigenvalues --   -1.12312  -1.08128  -1.06330  -1.02322  -1.01372
 Alpha  occ. eigenvalues --   -0.98203  -0.97388  -0.87082  -0.85755  -0.83330
 Alpha  occ. eigenvalues --   -0.82387  -0.79722  -0.74881  -0.70543  -0.70423
 Alpha  occ. eigenvalues --   -0.68905  -0.65373  -0.65280  -0.62586  -0.60993
 Alpha  occ. eigenvalues --   -0.60273  -0.59106  -0.58614  -0.57723  -0.56409
 Alpha  occ. eigenvalues --   -0.54999  -0.54693  -0.51954  -0.51287  -0.50805
 Alpha  occ. eigenvalues --   -0.50047  -0.47376  -0.47147  -0.45528  -0.41222
 Alpha  occ. eigenvalues --   -0.39212  -0.33815  -0.33609  -0.28320  -0.27002
 Alpha virt. eigenvalues --    0.06803   0.08359   0.12993   0.13430   0.18237
 Alpha virt. eigenvalues --    0.18405   0.18995   0.19123   0.21240   0.21298
 Alpha virt. eigenvalues --    0.22507   0.23529   0.23852   0.25659   0.26736
 Alpha virt. eigenvalues --    0.27623   0.28453   0.30111   0.30356   0.35375
 Alpha virt. eigenvalues --    0.37343   0.40745   0.41317   0.41350   0.43285
 Alpha virt. eigenvalues --    0.43994   0.45183   0.46339   0.46954   0.47478
 Alpha virt. eigenvalues --    0.49588   0.50397   0.50413   0.52451   0.58426
 Alpha virt. eigenvalues --    0.60192   0.62117   0.63075   0.64293   0.66060
 Alpha virt. eigenvalues --    0.66646   0.66854   0.67606   0.67609   0.68013
 Alpha virt. eigenvalues --    0.68464   0.68829   0.69761   0.69907   0.70758
 Alpha virt. eigenvalues --    0.71073   0.72937   0.73743   0.73809   0.74136
 Alpha virt. eigenvalues --    0.74202   0.74239   0.75457   0.75830   0.75896
 Alpha virt. eigenvalues --    0.76243   0.76770   0.78047   0.78460   0.78807
 Alpha virt. eigenvalues --    0.80037   0.80330   0.81835   0.83643   0.84394
 Alpha virt. eigenvalues --    0.86125   0.86459   0.87661   0.88262   0.88469
 Alpha virt. eigenvalues --    0.89918   0.90798   0.90829   0.92242   0.92854
 Alpha virt. eigenvalues --    0.94274   0.94578   0.96392   0.97882   0.98055
 Alpha virt. eigenvalues --    0.99261   0.99278   1.01244   1.03302   1.04797
 Alpha virt. eigenvalues --    1.08858   1.09772   1.10853   1.11693   1.11813
 Alpha virt. eigenvalues --    1.12482   1.12593   1.13268   1.13439   1.15080
 Alpha virt. eigenvalues --    1.15702   1.15881   1.15892   1.17284   1.17545
 Alpha virt. eigenvalues --    1.18286   1.19738   1.20415   1.22055   1.22260
 Alpha virt. eigenvalues --    1.22902   1.23930   1.25704   1.25724   1.27556
 Alpha virt. eigenvalues --    1.28318   1.28949   1.29610   1.30264   1.31107
 Alpha virt. eigenvalues --    1.31631   1.32755   1.34406   1.35793   1.38193
 Alpha virt. eigenvalues --    1.39254   1.41382   1.44183   1.46603   1.51515
 Alpha virt. eigenvalues --    1.54107   1.56659   1.57847   1.58526   1.60166
 Alpha virt. eigenvalues --    1.61981   1.63812   1.64198   1.65950   1.67536
 Alpha virt. eigenvalues --    1.69415   1.69699   1.70256   1.71660   1.73604
 Alpha virt. eigenvalues --    1.74261   1.74888   1.75124   1.76084   1.78941
 Alpha virt. eigenvalues --    1.79341   1.79402   1.81123   1.83817   1.84771
 Alpha virt. eigenvalues --    1.85348   1.86546   1.86841   1.87930   1.89729
 Alpha virt. eigenvalues --    1.89898   1.90253   1.91274   1.91530   1.92351
 Alpha virt. eigenvalues --    1.92936   1.93712   1.93727   1.95188   1.95469
 Alpha virt. eigenvalues --    1.97588   1.98777   1.99121   1.99849   2.00704
 Alpha virt. eigenvalues --    2.02364   2.03061   2.04057   2.04696   2.05489
 Alpha virt. eigenvalues --    2.05789   2.07672   2.08441   2.09388   2.09688
 Alpha virt. eigenvalues --    2.11333   2.12134   2.13415   2.13593   2.15008
 Alpha virt. eigenvalues --    2.15989   2.16887   2.17063   2.18525   2.19757
 Alpha virt. eigenvalues --    2.20239   2.21482   2.23210   2.24149   2.25664
 Alpha virt. eigenvalues --    2.26703   2.27485   2.28221   2.31896   2.33967
 Alpha virt. eigenvalues --    2.34127   2.34763   2.34969   2.37433   2.38965
 Alpha virt. eigenvalues --    2.39740   2.41514   2.43414   2.46233   2.46549
 Alpha virt. eigenvalues --    2.50343   2.53095   2.54389   2.55877   2.56107
 Alpha virt. eigenvalues --    2.58043   2.63689   2.66760   2.67296   2.69508
 Alpha virt. eigenvalues --    2.72480   2.72574   2.75903   2.76061   2.80078
 Alpha virt. eigenvalues --    2.82425   2.83095   2.85365   2.92243   2.93979
 Alpha virt. eigenvalues --    2.99770   2.99847   3.01813   3.02901   3.04288
 Alpha virt. eigenvalues --    3.06001   3.07754   3.10250   3.14389   3.14945
 Alpha virt. eigenvalues --    3.21108   3.23261   3.32317   3.70117   3.71397
 Alpha virt. eigenvalues --    3.87213   3.93293
          Condensed to atoms (all electrons):
 Mulliken charges:
               1
     1  C   -0.018050
     2  C   -0.004338
     3  C   -0.033848
     4  C   -0.081891
     5  C   -0.090385
     6  C    0.028170
     7  C    0.026740
     8  C    0.032794
     9  C   -0.094670
    10  C    0.032794
    11  C    0.026740
    12  C   -0.090385
    13  C    0.028170
    14  C   -0.018050
    15  C   -0.004338
    16  C   -0.033848
    17  C   -0.081891
    18  C    0.061451
    19  H    0.029416
    20  H    0.028783
    21  H    0.040983
    22  H    0.019145
    23  H    0.019386
    24  H    0.019706
    25  H    0.019706
    26  H    0.019386
    27  H    0.019145
    28  H    0.029416
    29  H    0.028783
    30  H    0.040983
 Sum of Mulliken charges =  -0.00000
 Mulliken charges with hydrogens summed into heavy atoms:
               1
     1  C    0.011366
     2  C    0.024444
     3  C    0.007135
     4  C   -0.081891
     5  C   -0.090385
     6  C    0.047314
     7  C    0.046126
     8  C    0.052500
     9  C   -0.094670
    10  C    0.052500
    11  C    0.046126
    12  C   -0.090385
    13  C    0.047314
    14  C    0.011366
    15  C    0.024444
    16  C    0.007135
    17  C   -0.081891
    18  C    0.061451
 Electronic spatial extent (au):  <R**2>=           4242.3076
 Charge=              0.0000 electrons
 Dipole moment (field-independent basis, Debye):
    X=              0.0000    Y=              0.0000    Z=              0.0715  Tot=              0.0715
 Unable to Open any file for archive entry.
 1\1\GINC-NODE01\SP\RMP2-FC\CC-pVDZ\C18H12\XUHJ\11-Oct-2024\0\\#T MP2/c
 c-pVDZ symm=veryloose\\c1ccc2c(c1)ccc1ccc3ccccc3c12\\0,1\C,0,0.,3.8552
 61,-1.521207\C,0,0.389966,2.708681,-2.243438\C,0,0.402713,1.464721,-1.
 636202\C,0,0.02213,1.28784,-0.27725\C,0,-0.255196,2.477775,0.47541\C,0
 ,-0.296545,3.735598,-0.177583\C,0,-0.412999,2.398842,1.893894\C,0,-0.2
 25445,1.213701,2.543591\C,0,0.,0.,1.819567\C,0,0.225445,-1.213701,2.54
 3591\C,0,0.412999,-2.398842,1.893894\C,0,0.255196,-2.477775,0.47541\C,
 0,0.296545,-3.735598,-0.177583\C,0,0.,-3.855261,-1.521207\C,0,-0.38996
 6,-2.708681,-2.243438\C,0,-0.402713,-1.464721,-1.636202\C,0,-0.02213,-
 1.28784,-0.27725\C,0,0.,0.,0.400091\H,0,-0.026015,4.833313,-2.010377\H
 ,0,0.704224,2.801276,-3.287325\H,0,0.770332,0.614634,-2.20792\H,0,-0.5
 40011,4.621666,0.416954\H,0,-0.626749,3.316124,2.450627\H,0,-0.267652,
 1.164023,3.63578\H,0,0.267652,-1.164023,3.63578\H,0,0.626749,-3.316124
 ,2.450627\H,0,0.540011,-4.621666,0.416954\H,0,0.026015,-4.833313,-2.01
 0377\H,0,-0.704224,-2.801276,-3.287325\H,0,-0.770332,-0.614634,-2.2079
 2\\Version=ES64L-G16RevC.01\State=1-A\HF=-688.6956051\MP2=-691.0302686
 \RMSD=4.089e-09\PG=C02 [C2(C1C1),X(C16H12)]\\@
 The archive entry for this job was punched.


 SIGN SEEN IN A RESTAURANT-
 WE RESERVE THE RIGHT TO SERVE REFUSE TO ANYONE.
 Job cpu time:       0 days  0 hours  3 minutes 52.8 seconds.
 Elapsed time:       0 days  0 hours  0 minutes 29.1 seconds.
 File lengths (MBytes):  RWF=   4848 Int=      0 D2E=      0 Chk=      8 Scr=      1
 Normal termination of Gaussian 16 at Fri Oct 11 15:55:48 2024.
