 Entering Gaussian System, Link 0=g16
 Initial command:
 /home/software/g16/l1.exe "/home/software/g16tmp/Gau-147986.inp" -scrdir="/home/software/g16tmp/"
 Default is to use a total of   8 processors:
                                8 via shared-memory
                                1 via Linda
 Entering Link 1 = /home/software/g16/l1.exe PID=    147987.
  
 Copyright (c) 1988-2019, Gaussian, Inc.  All Rights Reserved.
  
 This is part of the Gaussian(R) 16 program.  It is based on
 the Gaussian(R) 09 system (copyright 2009, Gaussian, Inc.),
 the Gaussian(R) 03 system (copyright 2003, Gaussian, Inc.),
 the Gaussian(R) 98 system (copyright 1998, Gaussian, Inc.),
 the Gaussian(R) 94 system (copyright 1995, Gaussian, Inc.),
 the Gaussian 92(TM) system (copyright 1992, Gaussian, Inc.),
 the Gaussian 90(TM) system (copyright 1990, Gaussian, Inc.),
 the Gaussian 88(TM) system (copyright 1988, Gaussian, Inc.),
 the Gaussian 86(TM) system (copyright 1986, Carnegie Mellon
 University), and the Gaussian 82(TM) system (copyright 1983,
 Carnegie Mellon University). Gaussian is a federally registered
 trademark of Gaussian, Inc.
  
 This software contains proprietary and confidential information,
 including trade secrets, belonging to Gaussian, Inc.
  
 This software is provided under written license and may be
 used, copied, transmitted, or stored only in accord with that
 written license.
  
 The following legend is applicable only to US Government
 contracts under FAR:
  
                    RESTRICTED RIGHTS LEGEND
  
 Use, reproduction and disclosure by the US Government is
 subject to restrictions as set forth in subparagraphs (a)
 and (c) of the Commercial Computer Software - Restricted
 Rights clause in FAR 52.227-19.
  
 Gaussian, Inc.
 340 Quinnipiac St., Bldg. 40, Wallingford CT 06492
  
  
 ---------------------------------------------------------------
 Warning -- This program may not be used in any manner that
 competes with the business of Gaussian, Inc. or will provide
 assistance to any competitor of Gaussian, Inc.  The licensee
 of this program is prohibited from giving any competitor of
 Gaussian, Inc. access to this program.  By using this program,
 the user acknowledges that Gaussian, Inc. is engaged in the
 business of creating and licensing software in the field of
 computational chemistry and represents and warrants to the
 licensee that it is not a competitor of Gaussian, Inc. and that
 it will not use this program in any manner prohibited above.
 ---------------------------------------------------------------
  

 Cite this work as:
 Gaussian 16, Revision C.01,
 M. J. Frisch, G. W. Trucks, H. B. Schlegel, G. E. Scuseria, 
 M. A. Robb, J. R. Cheeseman, G. Scalmani, V. Barone, 
 G. A. Petersson, H. Nakatsuji, X. Li, M. Caricato, A. V. Marenich, 
 J. Bloino, B. G. Janesko, R. Gomperts, B. Mennucci, H. P. Hratchian, 
 J. V. Ortiz, A. F. Izmaylov, J. L. Sonnenberg, D. Williams-Young, 
 F. Ding, F. Lipparini, F. Egidi, J. Goings, B. Peng, A. Petrone, 
 T. Henderson, D. Ranasinghe, V. G. Zakrzewski, J. Gao, N. Rega, 
 G. Zheng, W. Liang, M. Hada, M. Ehara, K. Toyota, R. Fukuda, 
 J. Hasegawa, M. Ishida, T. Nakajima, Y. Honda, O. Kitao, H. Nakai, 
 T. Vreven, K. Throssell, J. A. Montgomery, Jr., J. E. Peralta, 
 F. Ogliaro, M. J. Bearpark, J. J. Heyd, E. N. Brothers, K. N. Kudin, 
 V. N. Staroverov, T. A. Keith, R. Kobayashi, J. Normand, 
 K. Raghavachari, A. P. Rendell, J. C. Burant, S. S. Iyengar, 
 J. Tomasi, M. Cossi, J. M. Millam, M. Klene, C. Adamo, R. Cammi, 
 J. W. Ochterski, R. L. Martin, K. Morokuma, O. Farkas, 
 J. B. Foresman, and D. J. Fox, Gaussian, Inc., Wallingford CT, 2019.
 
 ******************************************
 Gaussian 16:  ES64L-G16RevC.01  3-Jul-2019
                20-Dec-2023 
 ******************************************
 %nprocshared=16
 Will use up to   16 processors via shared memory.
 %mem=1920MB
 -----------------------------
 #T MP2/cc-pVDZ symm=veryloose
 -----------------------------
 --------
 c1ccccc1
 --------
 Symbolic Z-matrix:
 Charge =  0 Multiplicity = 1
 C                     0.       -1.39907   0. 
 C                     1.21163  -0.69953   0. 
 C                     1.21163   0.69953   0. 
 C                     0.        1.39907   0. 
 C                    -1.21163   0.69953   0. 
 C                    -1.21163  -0.69953   0. 
 H                     0.       -2.49388   0. 
 H                     2.15976  -1.24694   0. 
 H                     2.15976   1.24694   0. 
 H                     0.        2.49388   0. 
 H                    -2.15976   1.24694   0. 
 H                    -2.15976  -1.24694   0. 
 
                    Distance matrix (angstroms):
                    1          2          3          4          5
     1  C    0.000000
     2  C    1.399069   0.000000
     3  C    2.423258   1.399068   0.000000
     4  C    2.798138   2.423258   1.399069   0.000000
     5  C    2.423258   2.798137   2.423258   1.399069   0.000000
     6  C    1.399069   2.423258   2.798137   2.423258   1.399068
     7  H    1.094809   2.165113   3.415542   3.892947   3.415542
     8  H    2.165112   1.094809   2.165112   3.415542   3.892946
     9  H    3.415542   2.165112   1.094809   2.165112   3.415541
    10  H    3.892947   3.415542   2.165113   1.094809   2.165113
    11  H    3.415542   3.892946   3.415541   2.165112   1.094809
    12  H    2.165112   3.415541   3.892946   3.415542   2.165112
                    6          7          8          9         10
     6  C    0.000000
     7  H    2.165113   0.000000
     8  H    3.415541   2.493877   0.000000
     9  H    3.892946   4.319523   2.493878   0.000000
    10  H    3.415542   4.987756   4.319523   2.493877   0.000000
    11  H    2.165112   4.319523   4.987755   4.319522   2.493877
    12  H    1.094809   2.493877   4.319522   4.987755   4.319523
                   11         12
    11  H    0.000000
    12  H    2.493878   0.000000
 Framework group  D6H[3C2'(HC.CH)]
 Deg. of freedom     2
                         Standard orientation:                         
 ---------------------------------------------------------------------
 Center     Atomic      Atomic             Coordinates (Angstroms)
 Number     Number       Type             X           Y           Z
 ---------------------------------------------------------------------
      1          6           0        0.000000    1.399069    0.000000
      2          6           0        1.211629    0.699534    0.000000
      3          6           0        1.211629   -0.699535    0.000000
      4          6           0       -0.000000   -1.399069   -0.000000
      5          6           0       -1.211629   -0.699534    0.000000
      6          6           0       -1.211629    0.699535    0.000000
      7          1           0        0.000000    2.493878    0.000000
      8          1           0        2.159762    1.246939    0.000000
      9          1           0        2.159762   -1.246939    0.000000
     10          1           0       -0.000000   -2.493878   -0.000000
     11          1           0       -2.159762   -1.246939    0.000000
     12          1           0       -2.159762    1.246939    0.000000
 ---------------------------------------------------------------------
 Rotational constants (GHZ):           5.6612114           5.6612114           2.8306057
   114 basis functions,   240 primitive gaussians,   120 cartesian basis functions
    21 alpha electrons       21 beta electrons
       nuclear repulsion energy       202.6657296768 Hartrees.
 NAtoms=   12 NActive=   12 NUniq=    2 SFac= 4.00D+00 NAtFMM=   60 NAOKFM=F Big=F
 ExpMin= 1.22D-01 ExpMax= 6.67D+03 ExpMxC= 2.28D+02 IAcc=3 IRadAn=         5 AccDes= 0.00D+00
 Harris functional with IExCor=  205 and IRadAn=       5 diagonalized for initial guess.
 HarFok:  IExCor=  205 AccDes= 0.00D+00 IRadAn=         5 IDoV= 1 UseB2=F ITyADJ=14
 ICtDFT=  3500011 ScaDFX=  1.000000  1.000000  1.000000  1.000000
 FoFCou: FMM=F IPFlag=           0 FMFlag=      100000 FMFlg1=           0
         NFxFlg=           0 DoJE=T BraDBF=F KetDBF=T FulRan=T
         wScrn=  0.000000 ICntrl=       500 IOpCl=  0 I1Cent=   200000004 NGrid=           0
         NMat0=    1 NMatS0=      1 NMatT0=    0 NMatD0=    1 NMtDS0=    0 NMtDT0=    0
 Petite list used in FoFCou.
 Initial guess orbital symmetries:
       Occupied  (A1G) (E1U) (E1U) (E2G) (E2G) (B1U) (A1G) (E1U)
                 (E1U) (E2G) (E2G) (A1G) (B2U) (B1U) (E1U) (E1U)
                 (A2U) (E2G) (E2G) (E1G) (E1G)
       Virtual   (E2U) (E2U) (A1G) (B2G) (E1U) (E1U) (E2G) (E2G)
                 (B1U) (E2G) (E2G) (E1U) (E1U) (B2U) (A1G) (A2U)
                 (B1U) (E2G) (E2G) (A1G) (E1U) (E1U) (A2G) (E1G)
                 (E1G) (E2U) (E2U) (E2G) (E2G) (E1U) (E1U) (B2G)
                 (B1U) (A1G) (A2U) (A2G) (E1U) (E1U) (B1G) (E1G)
                 (E1G) (E2G) (E2G) (E1U) (E1U) (E2U) (E2U) (B1U)
                 (A1G) (E2G) (E2G) (B2U) (E2U) (E2U) (A1G) (B2G)
                 (E1U) (E1U) (E2G) (E2G) (A2U) (E1G) (E1G) (E1U)
                 (E1U) (B1U) (E1G) (E1G) (E2G) (E2G) (E1U) (E1U)
                 (B2U) (A2G) (E2U) (E2U) (E2G) (E2G) (B1U) (A1U)
                 (B2G) (A1G) (E1U) (E1U) (E2G) (E2G) (E1U) (E1U)
                 (B1U) (A2G) (E2G) (E2G) (B1U)
 The electronic state of the initial guess is 1-A1G.
 SCF Done:  E(RHF) =  -230.721002569     A.U. after    9 cycles
            NFock=  9  Conv=0.20D-08     -V/T= 2.0018
 ExpMin= 1.22D-01 ExpMax= 6.67D+03 ExpMxC= 2.28D+02 IAcc=3 IRadAn=         5 AccDes= 0.00D+00
 HarFok:  IExCor=  205 AccDes= 0.00D+00 IRadAn=         5 IDoV=-2 UseB2=F ITyADJ=14
 ICtDFT= 12500011 ScaDFX=  1.000000  1.000000  1.000000  1.000000
 NROrb=    108 NOA=    15 NOB=    15 NVA=    93 NVB=    93

 **** Warning!!: The largest alpha MO coefficient is  0.12354690D+02

 ANorm=    0.1140772374D+01
 E2 =    -0.7852028809D+00 EUMP2 =    -0.23150620544950D+03

 **********************************************************************

            Population analysis using the SCF Density.

 **********************************************************************

 Orbital symmetries:
       Occupied  (A1G) (E1U) (E1U) (E2G) (E2G) (B1U) (A1G) (E1U)
                 (E1U) (E2G) (E2G) (A1G) (B1U) (B2U) (E1U) (E1U)
                 (A2U) (E2G) (E2G) (E1G) (E1G)
       Virtual   (E2U) (E2U) (A1G) (E1U) (E1U) (E2G) (E2G) (B1U)
                 (B2G) (E2G) (E2G) (E1U) (E1U) (B2U) (A1G) (B1U)
                 (A2U) (A1G) (E1G) (E1G) (E1U) (E1U) (E2G) (E2G)
                 (A2G) (E2U) (E2U) (E1U) (E1U) (E2G) (E2G) (B2G)
                 (B1U) (A1G) (A2U) (E1U) (E1U) (A2G) (B1G) (E2G)
                 (E2G) (E1U) (E1U) (E1G) (E1G) (B1U) (E2U) (E2U)
                 (A1G) (E2G) (E2G) (B2U) (E2U) (E2U) (B2G) (A1G)
                 (E2G) (E2G) (E1U) (E1U) (A2U) (E1G) (E1G) (E1U)
                 (E1U) (B1U) (E1G) (E1G) (B2U) (E1U) (E1U) (E2G)
                 (E2G) (A2G) (E2U) (E2U) (E2G) (E2G) (B1U) (A1U)
                 (B2G) (A1G) (E2G) (E2G) (E1U) (E1U) (E1U) (E1U)
                 (B1U) (A2G) (E2G) (E2G) (B1U)
 The electronic state is 1-A1G.
 Alpha  occ. eigenvalues --  -11.24204 -11.24150 -11.24150 -11.24033 -11.24033
 Alpha  occ. eigenvalues --  -11.23976  -1.14559  -1.01074  -1.01074  -0.81903
 Alpha  occ. eigenvalues --   -0.81903  -0.70139  -0.63790  -0.61382  -0.58197
 Alpha  occ. eigenvalues --   -0.58197  -0.49766  -0.48947  -0.48947  -0.33320
 Alpha  occ. eigenvalues --   -0.33320
 Alpha virt. eigenvalues --    0.13595   0.13595   0.18070   0.21918   0.21918
 Alpha virt. eigenvalues --    0.25471   0.25471   0.27070   0.34845   0.43518
 Alpha virt. eigenvalues --    0.43518   0.46647   0.46647   0.58533   0.58588
 Alpha virt. eigenvalues --    0.66585   0.68082   0.71202   0.73230   0.73230
 Alpha virt. eigenvalues --    0.73666   0.73666   0.73757   0.73757   0.74004
 Alpha virt. eigenvalues --    0.82232   0.82232   0.85039   0.85039   0.88320
 Alpha virt. eigenvalues --    0.88320   0.90853   0.98418   0.99625   1.04894
 Alpha virt. eigenvalues --    1.10431   1.10431   1.12125   1.14990   1.20418
 Alpha virt. eigenvalues --    1.20418   1.24124   1.24124   1.24253   1.24253
 Alpha virt. eigenvalues --    1.30386   1.31610   1.31610   1.46578   1.50917
 Alpha virt. eigenvalues --    1.50917   1.71879   1.73859   1.73859   1.76238
 Alpha virt. eigenvalues --    1.80480   1.86690   1.86690   1.88423   1.88423
 Alpha virt. eigenvalues --    1.89339   1.94678   1.94678   1.95722   1.95722
 Alpha virt. eigenvalues --    1.96050   2.08403   2.08403   2.10918   2.14270
 Alpha virt. eigenvalues --    2.14270   2.15629   2.15629   2.16526   2.25566
 Alpha virt. eigenvalues --    2.25566   2.26790   2.26790   2.31347   2.49284
 Alpha virt. eigenvalues --    2.54703   2.68217   2.74611   2.74611   2.76294
 Alpha virt. eigenvalues --    2.76294   2.94248   2.94248   2.99639   3.11263
 Alpha virt. eigenvalues --    3.24563   3.24563   3.99267
          Condensed to atoms (all electrons):
 Mulliken charges:
               1
     1  C   -0.029907
     2  C   -0.029907
     3  C   -0.029907
     4  C   -0.029907
     5  C   -0.029907
     6  C   -0.029907
     7  H    0.029907
     8  H    0.029907
     9  H    0.029907
    10  H    0.029907
    11  H    0.029907
    12  H    0.029907
 Sum of Mulliken charges =  -0.00000
 Mulliken charges with hydrogens summed into heavy atoms:
               1
     1  C   -0.000000
     2  C   -0.000000
     3  C   -0.000000
     4  C   -0.000000
     5  C   -0.000000
     6  C   -0.000000
 Electronic spatial extent (au):  <R**2>=            462.2811
 Charge=              0.0000 electrons
 Dipole moment (field-independent basis, Debye):
    X=              0.0000    Y=             -0.0000    Z=              0.0000  Tot=              0.0000
 Unable to Open any file for archive entry.
 1\1\GINC-NODE06\SP\RMP2-FC\CC-pVDZ\C6H6\XUHJ\20-Dec-2023\0\\#T MP2/cc-
 pVDZ symm=veryloose\\c1ccccc1\\0,1\C,0,0.,-1.399069,0.\C,0,1.211629,-0
 .699534,0.\C,0,1.211629,0.699534,0.\C,0,0.,1.399069,0.\C,0,-1.211629,0
 .699534,0.\C,0,-1.211629,-0.699534,0.\H,0,0.,-2.493878,0.\H,0,2.159761
 ,-1.246939,0.\H,0,2.159761,1.246939,0.\H,0,0.,2.493878,0.\H,0,-2.15976
 1,1.246939,0.\H,0,-2.159761,-1.246939,0.\\Version=ES64L-G16RevC.01\Sta
 te=1-A1G\HF=-230.7210026\MP2=-231.5062054\RMSD=1.955e-09\PG=D06H [3C2'
 (H1C1.C1H1)]\\@
 The archive entry for this job was punched.


 IT IS UNWORTHY OF EXCELLENT MEN TO LOSE HOURS LIKE SLAVES IN THE LABOR
 OF CALCULATION WHICH COULD BE SAFELY RELEGATED TO ANYONE ELSE
 IF A MACHINE WERE USED.
    -- G.W. VON LEIBNIZ
 Job cpu time:       0 days  0 hours  0 minutes 21.5 seconds.
 Elapsed time:       0 days  0 hours  0 minutes  1.5 seconds.
 File lengths (MBytes):  RWF=     22 Int=      0 D2E=      0 Chk=      3 Scr=      2
 Normal termination of Gaussian 16 at Wed Dec 20 12:21:27 2023.
