 Entering Gaussian System, Link 0=g16
 Initial command:
 /home/software/g16/l1.exe "/home/software/g16tmp/Gau-81691.inp" -scrdir="/home/software/g16tmp/"
 Default is to use a total of   8 processors:
                                8 via shared-memory
                                1 via Linda
 Entering Link 1 = /home/software/g16/l1.exe PID=     81692.
  
 Copyright (c) 1988-2019, Gaussian, Inc.  All Rights Reserved.
  
 This is part of the Gaussian(R) 16 program.  It is based on
 the Gaussian(R) 09 system (copyright 2009, Gaussian, Inc.),
 the Gaussian(R) 03 system (copyright 2003, Gaussian, Inc.),
 the Gaussian(R) 98 system (copyright 1998, Gaussian, Inc.),
 the Gaussian(R) 94 system (copyright 1995, Gaussian, Inc.),
 the Gaussian 92(TM) system (copyright 1992, Gaussian, Inc.),
 the Gaussian 90(TM) system (copyright 1990, Gaussian, Inc.),
 the Gaussian 88(TM) system (copyright 1988, Gaussian, Inc.),
 the Gaussian 86(TM) system (copyright 1986, Carnegie Mellon
 University), and the Gaussian 82(TM) system (copyright 1983,
 Carnegie Mellon University). Gaussian is a federally registered
 trademark of Gaussian, Inc.
  
 This software contains proprietary and confidential information,
 including trade secrets, belonging to Gaussian, Inc.
  
 This software is provided under written license and may be
 used, copied, transmitted, or stored only in accord with that
 written license.
  
 The following legend is applicable only to US Government
 contracts under FAR:
  
                    RESTRICTED RIGHTS LEGEND
  
 Use, reproduction and disclosure by the US Government is
 subject to restrictions as set forth in subparagraphs (a)
 and (c) of the Commercial Computer Software - Restricted
 Rights clause in FAR 52.227-19.
  
 Gaussian, Inc.
 340 Quinnipiac St., Bldg. 40, Wallingford CT 06492
  
  
 ---------------------------------------------------------------
 Warning -- This program may not be used in any manner that
 competes with the business of Gaussian, Inc. or will provide
 assistance to any competitor of Gaussian, Inc.  The licensee
 of this program is prohibited from giving any competitor of
 Gaussian, Inc. access to this program.  By using this program,
 the user acknowledges that Gaussian, Inc. is engaged in the
 business of creating and licensing software in the field of
 computational chemistry and represents and warrants to the
 licensee that it is not a competitor of Gaussian, Inc. and that
 it will not use this program in any manner prohibited above.
 ---------------------------------------------------------------
  

 Cite this work as:
 Gaussian 16, Revision C.01,
 M. J. Frisch, G. W. Trucks, H. B. Schlegel, G. E. Scuseria, 
 M. A. Robb, J. R. Cheeseman, G. Scalmani, V. Barone, 
 G. A. Petersson, H. Nakatsuji, X. Li, M. Caricato, A. V. Marenich, 
 J. Bloino, B. G. Janesko, R. Gomperts, B. Mennucci, H. P. Hratchian, 
 J. V. Ortiz, A. F. Izmaylov, J. L. Sonnenberg, D. Williams-Young, 
 F. Ding, F. Lipparini, F. Egidi, J. Goings, B. Peng, A. Petrone, 
 T. Henderson, D. Ranasinghe, V. G. Zakrzewski, J. Gao, N. Rega, 
 G. Zheng, W. Liang, M. Hada, M. Ehara, K. Toyota, R. Fukuda, 
 J. Hasegawa, M. Ishida, T. Nakajima, Y. Honda, O. Kitao, H. Nakai, 
 T. Vreven, K. Throssell, J. A. Montgomery, Jr., J. E. Peralta, 
 F. Ogliaro, M. J. Bearpark, J. J. Heyd, E. N. Brothers, K. N. Kudin, 
 V. N. Staroverov, T. A. Keith, R. Kobayashi, J. Normand, 
 K. Raghavachari, A. P. Rendell, J. C. Burant, S. S. Iyengar, 
 J. Tomasi, M. Cossi, J. M. Millam, M. Klene, C. Adamo, R. Cammi, 
 J. W. Ochterski, R. L. Martin, K. Morokuma, O. Farkas, 
 J. B. Foresman, and D. J. Fox, Gaussian, Inc., Wallingford CT, 2019.
 
 ******************************************
 Gaussian 16:  ES64L-G16RevC.01  3-Jul-2019
                20-Dec-2023 
 ******************************************
 %nprocshared=16
 Will use up to   16 processors via shared memory.
 %mem=640MB
 -----------------------------
 #T MP2/cc-pVDZ symm=veryloose
 -----------------------------
 ---
 C=C
 ---
 Symbolic Z-matrix:
 Charge =  0 Multiplicity = 1
 C                     0.        0.       -0.66735 
 C                     0.        0.        0.66735 
 H                     0.       -0.93385  -1.24389 
 H                     0.        0.93385  -1.24389 
 H                     0.       -0.93385   1.24389 
 H                     0.        0.93385   1.24389 
 
                    Distance matrix (angstroms):
                    1          2          3          4          5
     1  C    0.000000
     2  C    1.334706   0.000000
     3  H    1.097481   2.127184   0.000000
     4  H    1.097481   2.127184   1.867698   0.000000
     5  H    2.127184   1.097481   2.487774   3.110838   0.000000
     6  H    2.127184   1.097481   3.110838   2.487774   1.867698
                    6
     6  H    0.000000
 Framework group  D2H[C2"(C.C),SG(H4)]
 Deg. of freedom     3
                         Standard orientation:                         
 ---------------------------------------------------------------------
 Center     Atomic      Atomic             Coordinates (Angstroms)
 Number     Number       Type             X           Y           Z
 ---------------------------------------------------------------------
      1          6           0       -0.000000    0.000000    0.667353
      2          6           0        0.000000    0.000000   -0.667353
      3          1           0        0.000000    0.933849    1.243887
      4          1           0       -0.000000   -0.933849    1.243887
      5          1           0        0.000000    0.933849   -1.243887
      6          1           0       -0.000000   -0.933849   -1.243887
 ---------------------------------------------------------------------
 Rotational constants (GHZ):         143.7536065          29.8579900          24.7229669
    48 basis functions,    94 primitive gaussians,    50 cartesian basis functions
     8 alpha electrons        8 beta electrons
       nuclear repulsion energy        33.1480243523 Hartrees.
 NAtoms=    6 NActive=    6 NUniq=    2 SFac= 4.00D+00 NAtFMM=   60 NAOKFM=F Big=F
 ExpMin= 1.22D-01 ExpMax= 6.67D+03 ExpMxC= 2.28D+02 IAcc=3 IRadAn=         5 AccDes= 0.00D+00
 Harris functional with IExCor=  205 and IRadAn=       5 diagonalized for initial guess.
 HarFok:  IExCor=  205 AccDes= 0.00D+00 IRadAn=         5 IDoV= 1 UseB2=F ITyADJ=14
 ICtDFT=  3500011 ScaDFX=  1.000000  1.000000  1.000000  1.000000
 FoFCou: FMM=F IPFlag=           0 FMFlag=      100000 FMFlg1=           0
         NFxFlg=           0 DoJE=T BraDBF=F KetDBF=T FulRan=T
         wScrn=  0.000000 ICntrl=       500 IOpCl=  0 I1Cent=   200000004 NGrid=           0
         NMat0=    1 NMatS0=      1 NMatT0=    0 NMatD0=    1 NMtDS0=    0 NMtDT0=    0
 Petite list used in FoFCou.
 Initial guess orbital symmetries:
       Occupied  (AG) (B1U) (AG) (B1U) (B2U) (AG) (B3G) (B3U)
       Virtual   (B2G) (AG) (B2U) (B1U) (B3G) (B1U) (AG) (B2U)
                 (B3U) (AG) (B1U) (B2G) (B2U) (B3G) (B1U) (AG)
                 (B1G) (B3U) (B1U) (B3G) (AU) (AG) (B2U) (B3G)
                 (B2G) (B1U) (AG) (B2U) (B1G) (B3U) (B1U) (B2G)
                 (AU) (B3G) (AG) (B1U) (AG) (B2U) (B1U) (B3G)
 The electronic state of the initial guess is 1-AG.
 SCF Done:  E(RHF) =  -78.0393949533     A.U. after    9 cycles
            NFock=  9  Conv=0.27D-08     -V/T= 2.0030
 ExpMin= 1.22D-01 ExpMax= 6.67D+03 ExpMxC= 2.28D+02 IAcc=3 IRadAn=         5 AccDes= 0.00D+00
 HarFok:  IExCor=  205 AccDes= 0.00D+00 IRadAn=         5 IDoV=-2 UseB2=F ITyADJ=14
 ICtDFT= 12500011 ScaDFX=  1.000000  1.000000  1.000000  1.000000
 NROrb=     46 NOA=     6 NOB=     6 NVA=    40 NVB=    40
 ANorm=    0.1049995348D+01
 E2 =    -0.2757509527D+00 EUMP2 =    -0.78315145906049D+02

 **********************************************************************

            Population analysis using the SCF Density.

 **********************************************************************

 Orbital symmetries:
       Occupied  (AG) (B1U) (AG) (B1U) (B2U) (AG) (B3G) (B3U)
       Virtual   (B2G) (AG) (B2U) (B1U) (B3G) (B1U) (AG) (B2U)
                 (B3U) (AG) (B1U) (B2G) (B2U) (B3G) (B1U) (AG)
                 (B1G) (B1U) (B3G) (B3U) (AU) (AG) (B3G) (B2U)
                 (B2G) (AG) (B1U) (B2U) (B1G) (B3U) (B2G) (B1U)
                 (AU) (B3G) (AG) (B1U) (AG) (B2U) (B1U) (B3G)
 The electronic state is 1-AG.
 Alpha  occ. eigenvalues --  -11.23980 -11.23816  -1.02910  -0.78483  -0.63381
 Alpha  occ. eigenvalues --   -0.58182  -0.49872  -0.37425
 Alpha virt. eigenvalues --    0.16760   0.20231   0.23057   0.23582   0.30279
 Alpha virt. eigenvalues --    0.46242   0.58026   0.60797   0.68876   0.70352
 Alpha virt. eigenvalues --    0.77340   0.80716   0.85776   0.92599   0.96943
 Alpha virt. eigenvalues --    1.00463   1.12977   1.23670   1.23938   1.26182
 Alpha virt. eigenvalues --    1.29027   1.59126   1.72650   1.74151   1.80856
 Alpha virt. eigenvalues --    1.85056   1.85094   1.89741   1.96135   1.96988
 Alpha virt. eigenvalues --    2.22259   2.24483   2.35118   2.41642   2.48773
 Alpha virt. eigenvalues --    2.61758   2.67048   2.78800   3.09069   3.35956
          Condensed to atoms (all electrons):
 Mulliken charges:
               1
     1  C   -0.107138
     2  C   -0.107138
     3  H    0.053569
     4  H    0.053569
     5  H    0.053569
     6  H    0.053569
 Sum of Mulliken charges =   0.00000
 Mulliken charges with hydrogens summed into heavy atoms:
               1
     1  C    0.000000
     2  C    0.000000
 Electronic spatial extent (au):  <R**2>=             83.4874
 Charge=              0.0000 electrons
 Dipole moment (field-independent basis, Debye):
    X=             -0.0000    Y=              0.0000    Z=             -0.0000  Tot=              0.0000
 Unable to Open any file for archive entry.
 1\1\GINC-NODE07\SP\RMP2-FC\CC-pVDZ\C2H4\XUHJ\20-Dec-2023\0\\#T MP2/cc-
 pVDZ symm=veryloose\\C=C\\0,1\C,0,0.,0.,-0.667353\C,0,0.,0.,0.667353\H
 ,0,0.,-0.933849,-1.243887\H,0,0.,0.933849,-1.243887\H,0,0.,-0.933849,1
 .243887\H,0,0.,0.933849,1.243887\\Version=ES64L-G16RevC.01\State=1-AG\
 HF=-78.039395\MP2=-78.3151459\RMSD=2.666e-09\PG=D02H [C2"(C1.C1),SG(H4
 )]\\@
 The archive entry for this job was punched.



 IN THIS SHORT LIFE

 THAT ONLY LASTS AN HOUR

 HOW MUCH, HOW LITTLE, IS WITHIN OUR POWER....


 EMILY DICKINSON BOLTS OF MELODY NO. 521
 Job cpu time:       0 days  0 hours  0 minutes  8.2 seconds.
 Elapsed time:       0 days  0 hours  0 minutes  0.7 seconds.
 File lengths (MBytes):  RWF=     17 Int=      0 D2E=      0 Chk=      2 Scr=      2
 Normal termination of Gaussian 16 at Wed Dec 20 12:21:07 2023.
