 Entering Gaussian System, Link 0=g16
 Initial command:
 /opt/g16/l1.exe "/tmp/Gau-2569305.inp" -scrdir="/tmp/"
 Entering Link 1 = /opt/g16/l1.exe PID=   2569307.
  
 Copyright (c) 1988-2019, Gaussian, Inc.  All Rights Reserved.
  
 This is part of the Gaussian(R) 16 program.  It is based on
 the Gaussian(R) 09 system (copyright 2009, Gaussian, Inc.),
 the Gaussian(R) 03 system (copyright 2003, Gaussian, Inc.),
 the Gaussian(R) 98 system (copyright 1998, Gaussian, Inc.),
 the Gaussian(R) 94 system (copyright 1995, Gaussian, Inc.),
 the Gaussian 92(TM) system (copyright 1992, Gaussian, Inc.),
 the Gaussian 90(TM) system (copyright 1990, Gaussian, Inc.),
 the Gaussian 88(TM) system (copyright 1988, Gaussian, Inc.),
 the Gaussian 86(TM) system (copyright 1986, Carnegie Mellon
 University), and the Gaussian 82(TM) system (copyright 1983,
 Carnegie Mellon University). Gaussian is a federally registered
 trademark of Gaussian, Inc.
  
 This software contains proprietary and confidential information,
 including trade secrets, belonging to Gaussian, Inc.
  
 This software is provided under written license and may be
 used, copied, transmitted, or stored only in accord with that
 written license.
  
 The following legend is applicable only to US Government
 contracts under FAR:
  
                    RESTRICTED RIGHTS LEGEND
  
 Use, reproduction and disclosure by the US Government is
 subject to restrictions as set forth in subparagraphs (a)
 and (c) of the Commercial Computer Software - Restricted
 Rights clause in FAR 52.227-19.
  
 Gaussian, Inc.
 340 Quinnipiac St., Bldg. 40, Wallingford CT 06492
  
  
 ---------------------------------------------------------------
 Warning -- This program may not be used in any manner that
 competes with the business of Gaussian, Inc. or will provide
 assistance to any competitor of Gaussian, Inc.  The licensee
 of this program is prohibited from giving any competitor of
 Gaussian, Inc. access to this program.  By using this program,
 the user acknowledges that Gaussian, Inc. is engaged in the
 business of creating and licensing software in the field of
 computational chemistry and represents and warrants to the
 licensee that it is not a competitor of Gaussian, Inc. and that
 it will not use this program in any manner prohibited above.
 ---------------------------------------------------------------
  

 Cite this work as:
 Gaussian 16, Revision C.01,
 M. J. Frisch, G. W. Trucks, H. B. Schlegel, G. E. Scuseria, 
 M. A. Robb, J. R. Cheeseman, G. Scalmani, V. Barone, 
 G. A. Petersson, H. Nakatsuji, X. Li, M. Caricato, A. V. Marenich, 
 J. Bloino, B. G. Janesko, R. Gomperts, B. Mennucci, H. P. Hratchian, 
 J. V. Ortiz, A. F. Izmaylov, J. L. Sonnenberg, D. Williams-Young, 
 F. Ding, F. Lipparini, F. Egidi, J. Goings, B. Peng, A. Petrone, 
 T. Henderson, D. Ranasinghe, V. G. Zakrzewski, J. Gao, N. Rega, 
 G. Zheng, W. Liang, M. Hada, M. Ehara, K. Toyota, R. Fukuda, 
 J. Hasegawa, M. Ishida, T. Nakajima, Y. Honda, O. Kitao, H. Nakai, 
 T. Vreven, K. Throssell, J. A. Montgomery, Jr., J. E. Peralta, 
 F. Ogliaro, M. J. Bearpark, J. J. Heyd, E. N. Brothers, K. N. Kudin, 
 V. N. Staroverov, T. A. Keith, R. Kobayashi, J. Normand, 
 K. Raghavachari, A. P. Rendell, J. C. Burant, S. S. Iyengar, 
 J. Tomasi, M. Cossi, J. M. Millam, M. Klene, C. Adamo, R. Cammi, 
 J. W. Ochterski, R. L. Martin, K. Morokuma, O. Farkas, 
 J. B. Foresman, and D. J. Fox, Gaussian, Inc., Wallingford CT, 2019.
 
 ******************************************
 Gaussian 16:  ES64L-G16RevC.01  3-Jul-2019
                11-Oct-2024 
 ******************************************
 %nprocshared=8
 Will use up to    8 processors via shared memory.
 %mem=10400MB
 -----------------------------
 #T MP2/cc-pVDZ symm=veryloose
 -----------------------------
 ----------------------------------------
 c1ccc2c(c1)ccc1cc3ccc4c5ccccc5ccc4c3cc12
 ----------------------------------------
 Symbolic Z-matrix:
 Charge =  0 Multiplicity = 1
 C                    -4.93292   3.90875   0. 
 C                    -3.54149   4.1181    0. 
 C                    -2.67127   3.03743   0. 
 C                    -3.14547   1.70579   0. 
 C                    -4.55765   1.49992   0. 
 C                    -5.42718   2.61463   0. 
 C                    -5.08561   0.15935   0. 
 C                    -4.26419  -0.92425   0. 
 C                    -2.83289  -0.77289   0. 
 C                    -1.98747  -1.88598   0. 
 C                    -0.59133  -1.7616    0. 
 C                     0.26199  -2.91063   0. 
 C                     1.61977  -2.78224   0. 
 C                     2.26024  -1.49638   0. 
 C                     3.70626  -1.37666   0. 
 C                     4.57754  -2.4983    0. 
 C                     5.95232  -2.34596   0. 
 C                     6.53091  -1.05783   0. 
 C                     5.71326   0.05484   0. 
 C                     4.30121  -0.07621   0. 
 C                     3.45431   1.07186   0. 
 C                     2.09242   0.94763   0. 
 C                     1.45268  -0.33161   0. 
 C                     0.       -0.4539    0. 
 C                    -0.86104   0.65698   0. 
 C                    -2.25643   0.54365   0. 
 H                    -5.61785   4.76163   0. 
 H                    -3.14106   5.13614   0. 
 H                    -1.59758   3.23367   0. 
 H                    -6.507     2.43608   0. 
 H                    -6.17256   0.03283   0. 
 H                    -4.67718  -1.9375    0. 
 H                    -2.42872  -2.8877    0. 
 H                    -0.19862  -3.90307   0. 
 H                     2.22977  -3.68584   0. 
 H                     4.16756  -3.50896   0. 
 H                     6.59479  -3.23145   0. 
 H                     7.619    -0.94529   0. 
 H                     6.14443   1.06079   0. 
 H                     3.91619   2.06381   0. 
 H                     1.48673   1.85436   0. 
 H                    -0.42569   1.65352   0. 
 
                    Distance matrix (angstroms):
                    1          2          3          4          5
     1  C    0.000000
     2  C    1.407091   0.000000
     3  C    2.423686   1.387494   0.000000
     4  C    2.836899   2.444609   1.413560   0.000000
     5  C    2.437879   2.808466   2.433599   1.427110   0.000000
     6  C    1.385293   2.411698   2.788163   2.456058   1.413739
     7  C    3.752507   4.249247   3.756656   2.481056   1.440793
     8  C    4.879038   5.093880   4.269932   2.858078   2.441866
     9  C    5.131068   4.942062   3.813752   2.498311   2.853156
    10  C    6.500346   6.201937   4.970673   3.773825   4.250902
    11  C    7.141583   6.578326   5.230378   4.306554   5.135101
    12  C    8.572680   7.991838   6.631996   5.737771   6.533135
    13  C    9.365204   8.617040   7.230602   6.545985   7.516482
    14  C    8.997599   8.073562   6.698890   6.282952   7.447242
    15  C   10.127727   9.095178   7.756095   7.513164   8.750254
    16  C   11.467302  10.473558   9.120829   8.793135   9.971838
    17  C   12.554271  11.485492  10.165979   9.959237  11.191530
    18  C   12.493448  11.324467  10.072301  10.063296  11.379735
    19  C   11.322267  10.107449   8.899222   9.011256  10.372076
    20  C   10.057286   8.893831   7.636112   7.656929   8.997981
    21  C    8.854013   7.630258   6.433209   6.630157   8.023392
    22  C    7.623879   6.464735   5.201917   5.292472   6.672966
    23  C    7.665280   6.688926   5.325168   5.029313   6.283204
    24  C    6.585314   5.783198   4.396029   3.815525   4.958793
    25  C    5.210967   4.377693   2.990565   2.513686   3.791505
    26  C    4.299707   3.798437   2.528053   1.463203   2.492009
    27  H    1.093869   2.173802   3.413977   3.930759   3.429689
    28  H    2.171926   1.093960   2.150651   3.430362   3.902417
    29  H    3.402968   2.135649   1.091470   2.174946   3.430440
    30  H    2.155572   3.409323   3.882590   3.439947   2.162488
    31  H    4.069330   4.859220   4.613751   3.458619   2.181806
    32  H    5.851831   6.161175   5.364102   3.952167   3.439493
    33  H    7.243112   7.093628   5.930095   4.649069   4.876841
    34  H    9.134442   8.689880   7.367805   6.335865   6.942153
    35  H   10.439432   9.706128   8.320006   7.613329   8.541732
    36  H   11.740570  10.844422   9.467035   8.981866  10.060725
    37  H   13.559879  12.520384  11.187430  10.920113  12.114569
    38  H   13.457799  12.255388  11.034115  11.086120  12.419743
    39  H   11.437596  10.156983   9.034584   9.312269  10.711095
    40  H    9.039383   7.735441   6.659015   7.070727   8.492582
    41  H    6.740351   5.514299   4.323027   4.634578   6.054763
    42  H    5.039957   3.972707   2.637772   2.720283   4.134819
                    6          7          8          9         10
     6  C    0.000000
     7  C    2.478928   0.000000
     8  C    3.725077   1.359747   0.000000
     9  C    4.266812   2.438001   1.439283   0.000000
    10  C    5.664549   3.712391   2.471513   1.397745   0.000000
    11  C    6.522032   4.887603   3.767107   2.449926   1.401678
    12  C    7.930644   6.166163   4.942872   3.761402   2.471834
    13  C    8.876137   7.322237   6.170346   4.885045   3.716922
    14  C    8.717614   7.530135   6.549463   5.144252   4.265539
    15  C    9.967455   8.925040   7.983278   6.566960   5.716467
    16  C   11.235505  10.021959   8.980750   7.608646   6.593509
    17  C   12.413724  11.318681  10.314957   8.924931   7.953106
    18  C   12.509317  11.680120  10.795929   9.368134   8.558548
    19  C   11.430751  10.799382  10.025376   8.586140   7.941543
    20  C   10.093676   9.389780   8.607279   7.168034   6.543914
    21  C    9.014495   8.588540   7.972434   6.552250   6.193693
    22  C    7.702162   7.221188   6.626494   5.217169   4.967383
    23  C    7.484177   6.556704   5.747508   4.308229   3.775015
    24  C    6.234598   5.122456   4.290052   2.850791   2.449675
    25  C    4.968106   4.253784   3.752562   2.435719   2.781279
    26  C    3.787172   2.855171   2.487135   1.437217   2.444472
    27  H    2.155451   4.632958   5.844793   6.195723   7.574325
    28  H    3.403587   5.343203   6.163584   5.917069   7.116251
    29  H    3.879313   4.649500   4.939543   4.192676   5.134478
    30  H    1.094480   2.684000   4.040049   4.878178   6.253507
    31  H    2.687245   1.094280   2.134911   3.435486   4.603991
    32  H    4.613496   2.136250   1.094180   2.181216   2.690197
    33  H    6.266292   4.042719   2.687768   2.153081   1.094595
    34  H    8.355734   6.354995   5.040066   4.091134   2.696043
    35  H    9.915886   8.264397   7.056761   5.840867   4.585260
    36  H   11.382328   9.953775   8.819019   7.516135   6.365411
    37  H   13.368037  12.162618  11.101377   9.742974   8.687087
    38  H   13.523166  12.752549  11.883212  10.453312   9.652424
    39  H   11.675479  11.266172  10.596219   9.162681   8.649358
    40  H    9.359594   9.201056   8.709023   7.320991   7.103103
    41  H    6.955586   6.787395   6.386994   5.055839   5.104920
    42  H    5.093005   4.893614   4.623739   3.417905   3.868750
                   11         12         13         14         15
    11  C    0.000000
    12  C    1.431226   0.000000
    13  C    2.435296   1.363843   0.000000
    14  C    2.863869   2.448081   1.436537   0.000000
    15  C    4.314789   3.770420   2.515766   1.450970   0.000000
    16  C    5.221103   4.335209   2.971367   2.524630   1.420284
    17  C    6.569686   5.718281   4.354457   3.788572   2.446290
    18  C    7.156924   6.536994   5.205082   4.293135   2.842591
    19  C    6.561041   6.205673   4.980528   3.785453   2.465207
    20  C    5.174691   4.934494   3.809552   2.486452   1.430079
    21  C    4.939195   5.104029   4.268442   2.832250   2.461443
    22  C    3.813452   4.270439   3.759701   2.449765   2.829631
    23  C    2.494560   2.840611   2.456318   1.417327   2.484095
    24  C    1.435179   2.470655   2.836340   2.489059   3.819402
    25  C    2.433570   3.740187   4.240597   3.792004   4.999589
    26  C    2.843716   4.274858   5.107490   4.955999   6.264278
    27  H    8.235198   9.666231  10.454340  10.061159  11.163227
    28  H    7.353911   8.736776   9.239392   8.553615   9.449994
    29  H    5.095612   6.419531   6.822211   6.103777   7.027507
    30  H    7.253670   8.625918   9.657916   9.608781  10.901728
    31  H    5.862601   7.075821   8.285227   8.570322   9.978858
    32  H    4.089636   5.034116   6.353360   6.951423   8.402175
    33  H    2.155023   2.690805   4.049867   4.891021   6.318324
    34  H    2.177180   1.094119   2.136071   3.440657   4.650892
    35  H    3.414860   2.114975   1.090221   2.189673   2.740863
    36  H    5.069540   3.951137   2.649400   2.772791   2.181630
    37  H    7.334894   6.340922   4.995253   4.668920   3.432760
    38  H    8.250809   7.615000   6.274164   5.387029   3.936451
    39  H    7.303173   7.097558   5.936449   4.650387   3.447586
    40  H    5.911973   6.172375   5.362623   3.926463   3.446868
    41  H    4.170544   4.919864   4.638506   3.438857   3.919922
    42  H    3.419129   4.615658   4.884655   4.139567   5.123958
                   16         17         18         19         20
    16  C    0.000000
    17  C    1.383191   0.000000
    18  C    2.427056   1.412110   0.000000
    19  C    2.794344   2.412672   1.380790   0.000000
    20  C    2.437795   2.806762   2.436214   1.418119   0.000000
    21  C    3.742678   4.233381   3.741795   2.477333   1.426640
    22  C    4.248562   5.074110   4.870535   3.729288   2.434548
    23  C    3.802535   4.929942   5.129894   4.278069   2.859955
    24  C    5.013326   6.245798   6.558776   5.735867   4.317760
    25  C    6.287601   7.445770   7.588248   6.601817   5.214057
    26  C    7.480411   8.702490   8.932079   7.984663   6.586867
    27  H   12.516095  13.578908  13.470657  12.269802  11.035966
    28  H   10.856405  11.775884  11.485311  10.208755   9.086037
    29  H    8.425414   9.387933   9.191810   7.972039   6.763954
    30  H   12.133227  13.345509  13.497948  12.450107  11.096354
    31  H   11.044057  12.356019  12.750201  11.885837  10.474334
    32  H    9.271696  10.637342  11.242557  10.579727   9.169287
    33  H    7.017076   8.398530   9.144586   8.657390   7.293588
    34  H    4.978462   6.344966   7.306295   7.114445   5.907052
    35  H    2.631026   3.956344   5.040463   5.111495   4.161761
    36  H    1.090656   2.130246   3.404923   3.884568   3.435348
    37  H    2.146343   1.094007   2.174557   3.402464   3.900769
    38  H    3.415012   2.177087   1.093894   2.152233   3.429729
    39  H    3.888731   3.412161   2.153578   1.094461   2.165698
    40  H    4.609795   4.857151   4.072029   2.695449   2.174384
    41  H    5.338421   6.130595   5.824486   4.593677   3.412979
    42  H    6.501528   7.528267   7.466304   6.343696   5.033442
                   21         22         23         24         25
    21  C    0.000000
    22  C    1.367547   0.000000
    23  C    2.444636   1.430291   0.000000
    24  C    3.776268   2.518435   1.457820   0.000000
    25  C    4.335247   2.967724   2.516072   1.405505   0.000000
    26  C    5.735113   4.367568   3.810979   2.467096   1.399982
    27  H    9.793804   8.602026   8.713988   7.665641   6.282948
    28  H    7.747088   6.703203   7.141347   6.412088   5.026074
    29  H    5.495003   4.340745   4.692052   4.018763   2.679894
    30  H   10.054297   8.727285   8.427141   7.119907   5.919637
    31  H    9.682776   8.315448   7.633942   6.191716   5.348063
    32  H    8.670485   7.358763   6.336722   4.906837   4.614566
    33  H    7.091414   5.928784   4.647459   3.438323   3.875872
    34  H    6.172014   5.364527   3.934728   3.454881   4.607911
    35  H    4.912755   4.635506   3.443064   3.926484   5.330398
    36  H    4.636012   4.916038   4.179244   5.167389   6.530071
    37  H    5.327383   6.142967   5.903413   7.155835   8.408877
    38  H    4.627476   5.841771   6.196782   7.634832   8.630085
    39  H    2.690147   4.053597   4.894009   6.328378   7.017102
    40  H    1.094213   2.138220   3.436118   4.655684   4.980066
    41  H    2.117475   1.090418   2.186235   2.745617   2.635472
    42  H    3.923357   2.615174   2.732950   2.149982   1.087481
                   26         27         28         29         30
    26  C    0.000000
    27  H    5.393567   0.000000
    28  H    4.676922   2.504948   0.000000
    29  H    2.769530   4.300842   2.449844   0.000000
    30  H    4.652816   2.489734   4.315081   4.973788   0.000000
    31  H    3.949306   4.761227   5.935809   5.583529   2.426413
    32  H    3.466427   6.764846   7.238511   6.018710   4.740929
    33  H    3.435672   8.287510   8.055403   6.177538   6.706341
    34  H    4.899783  10.219840   9.506069   7.272561   8.943183
    35  H    6.165589  11.530172  10.328270   7.907477  10.668131
    36  H    7.595471  12.812373  11.320500   8.871296  12.218416
    37  H    9.622646  14.595817  12.837575  10.436123  14.275075
    38  H    9.987042  14.414690  12.359725  10.119740  14.525071
    39  H    8.416763  12.330761  10.140462   8.041160  12.725970
    40  H    6.357047   9.908389   7.697011   5.636508  10.429836
    41  H    3.965999   7.676411   5.673318   3.378677   8.014868
    42  H    2.140889   6.051359   4.416100   1.967287   6.131458
                   31         32         33         34         35
    31  H    0.000000
    32  H    2.473524   0.000000
    33  H    4.748239   2.440993   0.000000
    34  H    7.153965   4.890908   2.450375   0.000000
    35  H    9.188444   7.124788   4.726367   2.438082   0.000000
    36  H   10.929875   8.983252   6.625469   4.383924   1.945844
    37  H   13.178032  11.345991   9.030053   6.826523   4.388606
    38  H   13.826199  12.336147  10.233753   8.358446   6.046027
    39  H   12.359813  11.229292   9.438727   8.054451   6.152647
    40  H   10.291144   9.479260   8.048312   7.248121   5.991866
    41  H    7.872902   7.236841   6.149621   5.999028   5.589801
    42  H    5.971023   5.565117   4.963345   5.561223   5.963233
                   36         37         38         39         40
    36  H    0.000000
    37  H    2.443044   0.000000
    38  H    4.299405   2.505101   0.000000
    39  H    4.979021   4.315796   2.489718   0.000000
    40  H    5.578437   5.934194   4.771323   2.443592   0.000000
    41  H    5.996001   7.208169   6.741130   4.724829   2.438473
    42  H    6.910070   8.552775   8.454043   6.596807   4.361219
                   41         42
    41  H    0.000000
    42  H    1.922932   0.000000
 Framework group  CS[SG(C26H16)]
 Deg. of freedom    81
                         Standard orientation:                         
 ---------------------------------------------------------------------
 Center     Atomic      Atomic             Coordinates (Angstroms)
 Number     Number       Type             X           Y           Z
 ---------------------------------------------------------------------
      1          6           0       -4.932918   -3.908745    0.000000
      2          6           0       -3.541489   -4.118105    0.000000
      3          6           0       -2.671266   -3.037433    0.000000
      4          6           0       -3.145470   -1.705786    0.000000
      5          6           0       -4.557654   -1.499921    0.000000
      6          6           0       -5.427185   -2.614629    0.000000
      7          6           0       -5.085615   -0.159346    0.000000
      8          6           0       -4.264191    0.924247    0.000000
      9          6           0       -2.832888    0.772893    0.000000
     10          6           0       -1.987474    1.885982    0.000000
     11          6           0       -0.591326    1.761598    0.000000
     12          6           0        0.261986    2.910626   -0.000000
     13          6           0        1.619773    2.782240   -0.000000
     14          6           0        2.260235    1.496376   -0.000000
     15          6           0        3.706258    1.376658   -0.000000
     16          6           0        4.577542    2.498296   -0.000000
     17          6           0        5.952319    2.345960   -0.000000
     18          6           0        6.530912    1.057828   -0.000000
     19          6           0        5.713261   -0.054839   -0.000000
     20          6           0        4.301210    0.076213   -0.000000
     21          6           0        3.454311   -1.071857   -0.000000
     22          6           0        2.092418   -0.947634   -0.000000
     23          6           0        1.452682    0.331612   -0.000000
     24          6           0       -0.000000    0.453901    0.000000
     25          6           0       -0.861039   -0.656980    0.000000
     26          6           0       -2.256426   -0.543649    0.000000
     27          1           0       -5.617854   -4.761630    0.000000
     28          1           0       -3.141061   -5.136145    0.000000
     29          1           0       -1.597582   -3.233671    0.000000
     30          1           0       -6.507003   -2.436079    0.000000
     31          1           0       -6.172556   -0.032826    0.000000
     32          1           0       -4.677178    1.937495    0.000000
     33          1           0       -2.428721    2.887700    0.000000
     34          1           0       -0.198617    3.903068    0.000000
     35          1           0        2.229768    3.685837   -0.000000
     36          1           0        4.167556    3.508960   -0.000000
     37          1           0        6.594787    3.231447   -0.000000
     38          1           0        7.619002    0.945290   -0.000000
     39          1           0        6.144435   -1.060788   -0.000000
     40          1           0        3.916187   -2.063811   -0.000000
     41          1           0        1.486726   -1.854358   -0.000000
     42          1           0       -0.425689   -1.653517    0.000000
 ---------------------------------------------------------------------
 Rotational constants (GHZ):           0.5807560           0.0998934           0.0852328
   444 basis functions,   970 primitive gaussians,   470 cartesian basis functions
    86 alpha electrons       86 beta electrons
       nuclear repulsion energy      1959.8992777183 Hartrees.
 NAtoms=   42 NActive=   42 NUniq=   42 SFac= 1.00D+00 NAtFMM=   60 NAOKFM=F Big=F
 ExpMin= 1.22D-01 ExpMax= 6.67D+03 ExpMxC= 2.28D+02 IAcc=3 IRadAn=         5 AccDes= 0.00D+00
 Harris functional with IExCor=  205 and IRadAn=       5 diagonalized for initial guess.
 HarFok:  IExCor=  205 AccDes= 0.00D+00 IRadAn=         5 IDoV= 1 UseB2=F ITyADJ=14
 ICtDFT=  3500011 ScaDFX=  1.000000  1.000000  1.000000  1.000000
 FoFCou: FMM=F IPFlag=           0 FMFlag=      100000 FMFlg1=           0
         NFxFlg=           0 DoJE=T BraDBF=F KetDBF=T FulRan=T
         wScrn=  0.000000 ICntrl=       500 IOpCl=  0 I1Cent=   200000004 NGrid=           0
         NMat0=    1 NMatS0=      1 NMatT0=    0 NMatD0=    1 NMtDS0=    0 NMtDT0=    0
 Petite list used in FoFCou.
 Initial guess orbital symmetries:
       Occupied  (A') (A') (A') (A') (A') (A') (A') (A') (A') (A')
                 (A') (A') (A') (A') (A') (A') (A') (A') (A') (A')
                 (A') (A') (A') (A') (A') (A') (A') (A') (A') (A')
                 (A') (A') (A') (A') (A') (A') (A') (A') (A') (A')
                 (A') (A') (A') (A') (A') (A') (A') (A') (A') (A')
                 (A') (A') (A') (A') (A') (A') (A') (A') (A') (A')
                 (A') (A') (A') (A') (A") (A') (A') (A") (A') (A')
                 (A") (A') (A') (A') (A") (A') (A') (A") (A") (A")
                 (A") (A") (A") (A") (A") (A")
       Virtual   (A") (A") (A") (A") (A") (A") (A") (A") (A") (A")
                 (A') (A') (A') (A") (A') (A') (A') (A') (A') (A")
                 (A') (A') (A') (A') (A') (A") (A') (A') (A') (A')
                 (A') (A') (A') (A') (A') (A') (A') (A') (A') (A')
                 (A') (A') (A') (A') (A') (A') (A') (A') (A') (A')
                 (A') (A') (A') (A') (A') (A") (A") (A') (A') (A')
                 (A") (A') (A") (A') (A') (A') (A") (A') (A') (A')
                 (A") (A') (A') (A") (A') (A') (A') (A') (A') (A')
                 (A') (A') (A") (A') (A") (A') (A') (A') (A") (A')
                 (A") (A') (A") (A") (A') (A") (A") (A") (A") (A')
                 (A') (A") (A') (A') (A') (A') (A') (A") (A') (A')
                 (A") (A') (A") (A') (A') (A") (A') (A") (A') (A')
                 (A') (A") (A") (A") (A") (A") (A') (A') (A") (A')
                 (A') (A') (A") (A') (A') (A') (A') (A") (A') (A")
                 (A') (A') (A") (A') (A') (A") (A') (A") (A') (A")
                 (A") (A') (A') (A") (A") (A') (A") (A") (A') (A")
                 (A') (A") (A') (A') (A') (A") (A") (A') (A") (A')
                 (A") (A') (A') (A') (A') (A') (A') (A') (A') (A')
                 (A') (A') (A') (A") (A') (A') (A') (A") (A') (A")
                 (A') (A") (A') (A') (A") (A') (A') (A') (A") (A')
                 (A') (A") (A') (A') (A") (A') (A") (A') (A') (A")
                 (A") (A') (A") (A') (A') (A') (A") (A') (A') (A')
                 (A') (A') (A") (A') (A') (A') (A') (A") (A') (A')
                 (A") (A') (A") (A') (A') (A") (A") (A') (A") (A')
                 (A") (A") (A') (A") (A') (A') (A") (A') (A") (A")
                 (A') (A') (A') (A') (A") (A') (A') (A") (A') (A')
                 (A") (A') (A") (A') (A') (A") (A') (A") (A') (A')
                 (A') (A') (A') (A") (A') (A') (A") (A') (A') (A')
                 (A") (A') (A") (A') (A') (A") (A') (A') (A') (A')
                 (A') (A") (A') (A") (A') (A") (A') (A") (A') (A')
                 (A') (A') (A') (A") (A') (A") (A') (A') (A') (A')
                 (A') (A') (A") (A') (A") (A') (A') (A') (A") (A")
                 (A') (A') (A') (A') (A') (A') (A') (A') (A') (A')
                 (A') (A') (A') (A') (A') (A') (A') (A') (A') (A')
                 (A') (A') (A') (A') (A') (A') (A') (A') (A') (A')
                 (A') (A') (A') (A') (A') (A') (A') (A')
 The electronic state of the initial guess is 1-A'.
 Integral accuracy reduced to 1.0D-05 until final iterations.
 Initial convergence to 1.0D-05 achieved.  Increase integral accuracy.
 SCF Done:  E(RHF) =  -994.029371360     A.U. after   17 cycles
            NFock= 17  Conv=0.39D-08     -V/T= 2.0012
 ExpMin= 1.22D-01 ExpMax= 6.67D+03 ExpMxC= 2.28D+02 IAcc=3 IRadAn=         5 AccDes= 0.00D+00
 HarFok:  IExCor=  205 AccDes= 0.00D+00 IRadAn=         5 IDoV=-2 UseB2=F ITyADJ=14
 ICtDFT= 12500011 ScaDFX=  1.000000  1.000000  1.000000  1.000000
 GSVD:  LWork=        -884 too small for GESVD, short by        3770 words or        3770 for optimal perf.
 NROrb=    418 NOA=    60 NOB=    60 NVA=   358 NVB=   358

 **** Warning!!: The largest alpha MO coefficient is  0.16968652D+02

 Estimated scratch disk usage=  4986529160 words.
 Actual    scratch disk usage=  3975669640 words.
 ANorm=    0.1521098453D+01
 E2 =    -0.3360620347D+01 EUMP2 =    -0.99738999170762D+03

 **********************************************************************

            Population analysis using the SCF Density.

 **********************************************************************

 Orbital symmetries:
       Occupied  (A') (A') (A') (A') (A') (A') (A') (A') (A') (A')
                 (A') (A') (A') (A') (A') (A') (A') (A') (A') (A')
                 (A') (A') (A') (A') (A') (A') (A') (A') (A') (A')
                 (A') (A') (A') (A') (A') (A') (A') (A') (A') (A')
                 (A') (A') (A') (A') (A') (A') (A') (A') (A') (A')
                 (A') (A') (A') (A') (A') (A') (A') (A') (A') (A')
                 (A') (A') (A') (A') (A') (A") (A') (A') (A") (A')
                 (A") (A') (A') (A') (A') (A") (A') (A") (A") (A")
                 (A") (A") (A") (A") (A") (A")
       Virtual   (A") (A") (A") (A") (A") (A") (A') (A") (A') (A')
                 (A') (A') (A') (A') (A") (A') (A') (A') (A") (A')
                 (A') (A') (A") (A') (A') (A') (A") (A') (A') (A')
                 (A') (A") (A') (A') (A') (A") (A') (A') (A') (A')
                 (A') (A') (A') (A') (A') (A') (A') (A') (A') (A')
                 (A') (A') (A') (A') (A") (A') (A') (A") (A') (A')
                 (A") (A") (A') (A') (A") (A') (A') (A") (A') (A')
                 (A") (A') (A') (A') (A') (A') (A") (A') (A') (A")
                 (A') (A') (A') (A') (A") (A') (A") (A') (A') (A')
                 (A") (A') (A") (A") (A') (A") (A') (A") (A") (A')
                 (A') (A") (A') (A') (A') (A") (A") (A') (A") (A')
                 (A') (A') (A') (A") (A') (A') (A") (A') (A') (A")
                 (A') (A') (A") (A") (A") (A") (A') (A") (A') (A')
                 (A") (A') (A') (A') (A') (A') (A') (A") (A') (A')
                 (A') (A") (A') (A') (A") (A') (A") (A') (A') (A")
                 (A") (A') (A") (A') (A") (A') (A") (A') (A") (A')
                 (A") (A') (A") (A') (A") (A') (A') (A") (A") (A')
                 (A') (A") (A') (A") (A') (A') (A') (A') (A') (A')
                 (A') (A') (A') (A') (A') (A") (A') (A') (A') (A")
                 (A") (A') (A") (A') (A') (A') (A") (A") (A') (A')
                 (A") (A') (A") (A') (A') (A") (A') (A") (A") (A')
                 (A') (A") (A') (A") (A') (A') (A') (A') (A') (A")
                 (A') (A') (A') (A') (A") (A') (A") (A") (A") (A')
                 (A") (A') (A') (A") (A') (A') (A") (A') (A') (A")
                 (A') (A') (A") (A') (A') (A') (A') (A") (A') (A")
                 (A") (A') (A') (A') (A") (A') (A') (A") (A') (A")
                 (A') (A') (A") (A') (A') (A') (A") (A') (A") (A')
                 (A') (A') (A') (A") (A') (A") (A') (A') (A') (A')
                 (A') (A') (A") (A") (A') (A') (A") (A') (A') (A')
                 (A') (A") (A') (A") (A') (A") (A') (A") (A') (A')
                 (A') (A') (A') (A") (A") (A') (A') (A') (A') (A')
                 (A') (A") (A') (A") (A') (A') (A") (A") (A') (A')
                 (A') (A') (A') (A') (A') (A') (A') (A') (A') (A')
                 (A') (A') (A') (A') (A') (A') (A') (A') (A') (A')
                 (A') (A') (A') (A') (A') (A') (A') (A') (A') (A')
                 (A') (A') (A') (A') (A') (A') (A') (A')
 The electronic state is 1-A'.
 Alpha  occ. eigenvalues --  -11.25733 -11.25636 -11.25632 -11.25580 -11.25534
 Alpha  occ. eigenvalues --  -11.25504 -11.25257 -11.25193 -11.25148 -11.25079
 Alpha  occ. eigenvalues --  -11.24715 -11.24661 -11.24646 -11.24638 -11.24626
 Alpha  occ. eigenvalues --  -11.24621 -11.24580 -11.24576 -11.24573 -11.24565
 Alpha  occ. eigenvalues --  -11.24520 -11.24508 -11.24507 -11.24491 -11.24429
 Alpha  occ. eigenvalues --  -11.24426  -1.19743  -1.18180  -1.15741  -1.12538
 Alpha  occ. eigenvalues --   -1.09837  -1.08685  -1.05878  -1.04359  -1.03087
 Alpha  occ. eigenvalues --   -1.00848  -0.99335  -0.97840  -0.96364  -0.88104
 Alpha  occ. eigenvalues --   -0.86790  -0.85702  -0.84307  -0.82654  -0.81449
 Alpha  occ. eigenvalues --   -0.80223  -0.76107  -0.72959  -0.71577  -0.70722
 Alpha  occ. eigenvalues --   -0.69520  -0.67762  -0.67031  -0.65702  -0.63532
 Alpha  occ. eigenvalues --   -0.62477  -0.61531  -0.60558  -0.60274  -0.59641
 Alpha  occ. eigenvalues --   -0.59254  -0.57717  -0.57235  -0.57078  -0.56067
 Alpha  occ. eigenvalues --   -0.55840  -0.54586  -0.53874  -0.53810  -0.51518
 Alpha  occ. eigenvalues --   -0.50644  -0.50610  -0.49344  -0.48156  -0.47211
 Alpha  occ. eigenvalues --   -0.46495  -0.45992  -0.43396  -0.42188  -0.38847
 Alpha  occ. eigenvalues --   -0.36484  -0.34944  -0.31867  -0.30041  -0.27738
 Alpha  occ. eigenvalues --   -0.25620
 Alpha virt. eigenvalues --    0.05266   0.07445   0.09364   0.11104   0.14297
 Alpha virt. eigenvalues --    0.15575   0.17003   0.17961   0.18359   0.18549
 Alpha virt. eigenvalues --    0.19501   0.19727   0.21250   0.21783   0.22832
 Alpha virt. eigenvalues --    0.23181   0.23851   0.24600   0.25293   0.26168
 Alpha virt. eigenvalues --    0.27213   0.29029   0.29335   0.31842   0.33213
 Alpha virt. eigenvalues --    0.35032   0.35129   0.37403   0.38998   0.39395
 Alpha virt. eigenvalues --    0.40900   0.41095   0.42104   0.42722   0.44358
 Alpha virt. eigenvalues --    0.44907   0.45274   0.45513   0.46219   0.46507
 Alpha virt. eigenvalues --    0.47552   0.47741   0.49388   0.51516   0.52023
 Alpha virt. eigenvalues --    0.54886   0.55212   0.57013   0.58609   0.60164
 Alpha virt. eigenvalues --    0.63565   0.63859   0.64708   0.65049   0.65219
 Alpha virt. eigenvalues --    0.65522   0.66121   0.66416   0.66724   0.67686
 Alpha virt. eigenvalues --    0.68077   0.68244   0.68402   0.68496   0.69302
 Alpha virt. eigenvalues --    0.69304   0.70132   0.70458   0.70586   0.71481
 Alpha virt. eigenvalues --    0.71671   0.71694   0.72520   0.72724   0.73165
 Alpha virt. eigenvalues --    0.73462   0.73540   0.73983   0.74252   0.74568
 Alpha virt. eigenvalues --    0.74727   0.75145   0.75562   0.76110   0.76248
 Alpha virt. eigenvalues --    0.76593   0.77135   0.77268   0.78391   0.78530
 Alpha virt. eigenvalues --    0.78626   0.79357   0.79360   0.80227   0.80333
 Alpha virt. eigenvalues --    0.82443   0.82473   0.83484   0.84090   0.85516
 Alpha virt. eigenvalues --    0.86744   0.87194   0.88522   0.88965   0.89687
 Alpha virt. eigenvalues --    0.89713   0.90215   0.91190   0.91193   0.91836
 Alpha virt. eigenvalues --    0.93019   0.93212   0.93977   0.94549   0.94742
 Alpha virt. eigenvalues --    0.94887   0.96049   0.97756   0.98092   0.99452
 Alpha virt. eigenvalues --    1.00576   1.00803   1.02244   1.02797   1.04135
 Alpha virt. eigenvalues --    1.05894   1.08216   1.09128   1.09503   1.10255
 Alpha virt. eigenvalues --    1.11046   1.11470   1.11665   1.12865   1.13116
 Alpha virt. eigenvalues --    1.13325   1.13992   1.14089   1.14702   1.14801
 Alpha virt. eigenvalues --    1.15510   1.15546   1.16976   1.17213   1.17640
 Alpha virt. eigenvalues --    1.18587   1.18677   1.18973   1.19728   1.19736
 Alpha virt. eigenvalues --    1.20587   1.21243   1.21890   1.22240   1.22995
 Alpha virt. eigenvalues --    1.23710   1.23781   1.24852   1.25142   1.25296
 Alpha virt. eigenvalues --    1.25373   1.27034   1.27912   1.28113   1.28581
 Alpha virt. eigenvalues --    1.28850   1.30286   1.31345   1.31981   1.32687
 Alpha virt. eigenvalues --    1.33602   1.33714   1.34036   1.35219   1.36543
 Alpha virt. eigenvalues --    1.36747   1.37288   1.37923   1.40457   1.44210
 Alpha virt. eigenvalues --    1.49020   1.54203   1.54999   1.56378   1.57930
 Alpha virt. eigenvalues --    1.58391   1.58685   1.60262   1.61164   1.61942
 Alpha virt. eigenvalues --    1.62287   1.63118   1.63459   1.64219   1.64672
 Alpha virt. eigenvalues --    1.65003   1.65828   1.66856   1.68087   1.69673
 Alpha virt. eigenvalues --    1.69826   1.71223   1.71347   1.71895   1.72439
 Alpha virt. eigenvalues --    1.73320   1.73892   1.74468   1.74511   1.74527
 Alpha virt. eigenvalues --    1.76620   1.77458   1.78746   1.79721   1.81240
 Alpha virt. eigenvalues --    1.81689   1.82786   1.84104   1.85287   1.85727
 Alpha virt. eigenvalues --    1.85810   1.86467   1.87435   1.87914   1.88855
 Alpha virt. eigenvalues --    1.90331   1.90341   1.90871   1.91131   1.91297
 Alpha virt. eigenvalues --    1.91433   1.91607   1.92113   1.92394   1.92860
 Alpha virt. eigenvalues --    1.93596   1.93965   1.94747   1.95780   1.96685
 Alpha virt. eigenvalues --    1.97315   1.98031   1.98236   1.99056   1.99451
 Alpha virt. eigenvalues --    2.01121   2.01861   2.02186   2.02531   2.02579
 Alpha virt. eigenvalues --    2.03406   2.03799   2.04894   2.05450   2.06136
 Alpha virt. eigenvalues --    2.06649   2.07797   2.08027   2.09306   2.09446
 Alpha virt. eigenvalues --    2.09719   2.10211   2.10286   2.11148   2.13299
 Alpha virt. eigenvalues --    2.13658   2.14281   2.15226   2.15230   2.16425
 Alpha virt. eigenvalues --    2.17325   2.17793   2.18587   2.19133   2.19208
 Alpha virt. eigenvalues --    2.19627   2.20431   2.20723   2.22033   2.23514
 Alpha virt. eigenvalues --    2.24778   2.25597   2.25747   2.26337   2.26342
 Alpha virt. eigenvalues --    2.28416   2.28586   2.31720   2.32066   2.33080
 Alpha virt. eigenvalues --    2.33880   2.33980   2.35934   2.37009   2.37216
 Alpha virt. eigenvalues --    2.38818   2.39962   2.40322   2.41942   2.43486
 Alpha virt. eigenvalues --    2.45197   2.47241   2.47909   2.49382   2.49622
 Alpha virt. eigenvalues --    2.50456   2.50879   2.52473   2.54960   2.57108
 Alpha virt. eigenvalues --    2.57571   2.60633   2.61221   2.61640   2.63468
 Alpha virt. eigenvalues --    2.67392   2.69463   2.69799   2.71143   2.71438
 Alpha virt. eigenvalues --    2.72587   2.72886   2.74227   2.76452   2.78954
 Alpha virt. eigenvalues --    2.80492   2.81325   2.82360   2.83519   2.84709
 Alpha virt. eigenvalues --    2.92956   2.94417   2.95953   2.96339   2.99658
 Alpha virt. eigenvalues --    3.01095   3.03295   3.04001   3.04616   3.05015
 Alpha virt. eigenvalues --    3.06865   3.07374   3.10207   3.11542   3.12715
 Alpha virt. eigenvalues --    3.16871   3.18538   3.22181   3.22331   3.29196
 Alpha virt. eigenvalues --    3.30368   3.32674   3.62512   3.70716   3.75371
 Alpha virt. eigenvalues --    3.79497   3.92418   3.97314
          Condensed to atoms (all electrons):
 Mulliken charges:
               1
     1  C   -0.011339
     2  C    0.007296
     3  C   -0.031348
     4  C   -0.036387
     5  C   -0.100269
     6  C    0.027134
     7  C    0.034054
     8  C    0.034841
     9  C   -0.094476
    10  C    0.088701
    11  C   -0.092441
    12  C    0.058689
    13  C   -0.011853
    14  C   -0.037351
    15  C   -0.036129
    16  C   -0.028830
    17  C    0.004882
    18  C   -0.012937
    19  C    0.029330
    20  C   -0.098492
    21  C    0.059708
    22  C   -0.018703
    23  C   -0.038171
    24  C   -0.022463
    25  C    0.006993
    26  C   -0.026691
    27  H    0.029606
    28  H    0.027478
    29  H    0.018512
    30  H    0.019151
    31  H    0.019651
    32  H    0.016589
    33  H    0.010737
    34  H    0.014425
    35  H    0.024590
    36  H    0.025135
    37  H    0.027803
    38  H    0.029789
    39  H    0.018647
    40  H    0.016614
    41  H    0.017854
    42  H    0.029674
 Sum of Mulliken charges =  -0.00000
 Mulliken charges with hydrogens summed into heavy atoms:
               1
     1  C    0.018267
     2  C    0.034774
     3  C   -0.012836
     4  C   -0.036387
     5  C   -0.100269
     6  C    0.046285
     7  C    0.053705
     8  C    0.051430
     9  C   -0.094476
    10  C    0.099439
    11  C   -0.092441
    12  C    0.073113
    13  C    0.012737
    14  C   -0.037351
    15  C   -0.036129
    16  C   -0.003696
    17  C    0.032684
    18  C    0.016852
    19  C    0.047977
    20  C   -0.098492
    21  C    0.076322
    22  C   -0.000849
    23  C   -0.038171
    24  C   -0.022463
    25  C    0.036667
    26  C   -0.026691
 Electronic spatial extent (au):  <R**2>=          11738.3910
 Charge=             -0.0000 electrons
 Dipole moment (field-independent basis, Debye):
    X=              0.0398    Y=             -0.0680    Z=             -0.0000  Tot=              0.0788
 Unable to Open any file for archive entry.
 1\1\GINC-NODE01\SP\RMP2-FC\CC-pVDZ\C26H16\XUHJ\11-Oct-2024\0\\#T MP2/c
 c-pVDZ symm=veryloose\\c1ccc2c(c1)ccc1cc3ccc4c5ccccc5ccc4c3cc12\\0,1\C
 ,0,-4.932918,3.908745,0.\C,0,-3.541489,4.118105,0.\C,0,-2.671266,3.037
 433,0.\C,0,-3.14547,1.705786,0.\C,0,-4.557654,1.499921,0.\C,0,-5.42718
 5,2.614629,0.\C,0,-5.085615,0.159346,0.\C,0,-4.264191,-0.924247,0.\C,0
 ,-2.832888,-0.772893,0.\C,0,-1.987474,-1.885982,0.\C,0,-0.591326,-1.76
 1598,0.\C,0,0.261986,-2.910626,0.\C,0,1.619773,-2.78224,0.\C,0,2.26023
 5,-1.496376,0.\C,0,3.706258,-1.376658,0.\C,0,4.577542,-2.498296,0.\C,0
 ,5.952319,-2.34596,0.\C,0,6.530912,-1.057828,0.\C,0,5.713261,0.054839,
 0.\C,0,4.30121,-0.076213,0.\C,0,3.454311,1.071857,0.\C,0,2.092418,0.94
 7634,0.\C,0,1.452682,-0.331612,0.\C,0,0.,-0.453901,0.\C,0,-0.861039,0.
 65698,0.\C,0,-2.256426,0.543649,0.\H,0,-5.617854,4.76163,0.\H,0,-3.141
 061,5.136145,0.\H,0,-1.597582,3.233671,0.\H,0,-6.507003,2.436079,0.\H,
 0,-6.172556,0.032826,0.\H,0,-4.677178,-1.937495,0.\H,0,-2.428721,-2.88
 77,0.\H,0,-0.198617,-3.903068,0.\H,0,2.229768,-3.685837,0.\H,0,4.16755
 6,-3.50896,0.\H,0,6.594787,-3.231447,0.\H,0,7.619002,-0.94529,0.\H,0,6
 .144435,1.060788,0.\H,0,3.916187,2.063811,0.\H,0,1.486726,1.854358,0.\
 H,0,-0.425689,1.653517,0.\\Version=ES64L-G16RevC.01\State=1-A'\HF=-994
 .0293714\MP2=-997.3899917\RMSD=3.888e-09\PG=CS [SG(C26H16)]\\@
 The archive entry for this job was punched.


 ABALONE: AN EXPRESSION OF DISBELIEF.
 Job cpu time:       0 days  0 hours 23 minutes 14.0 seconds.
 Elapsed time:       0 days  0 hours  2 minutes 54.3 seconds.
 File lengths (MBytes):  RWF=  30446 Int=      0 D2E=      0 Chk=     14 Scr=      1
 Normal termination of Gaussian 16 at Fri Oct 11 15:59:47 2024.
