 Entering Gaussian System, Link 0=g16
 Initial command:
 /opt/g16/l1.exe "/tmp/Gau-2573949.inp" -scrdir="/tmp/"
 Entering Link 1 = /opt/g16/l1.exe PID=   2573951.
  
 Copyright (c) 1988-2019, Gaussian, Inc.  All Rights Reserved.
  
 This is part of the Gaussian(R) 16 program.  It is based on
 the Gaussian(R) 09 system (copyright 2009, Gaussian, Inc.),
 the Gaussian(R) 03 system (copyright 2003, Gaussian, Inc.),
 the Gaussian(R) 98 system (copyright 1998, Gaussian, Inc.),
 the Gaussian(R) 94 system (copyright 1995, Gaussian, Inc.),
 the Gaussian 92(TM) system (copyright 1992, Gaussian, Inc.),
 the Gaussian 90(TM) system (copyright 1990, Gaussian, Inc.),
 the Gaussian 88(TM) system (copyright 1988, Gaussian, Inc.),
 the Gaussian 86(TM) system (copyright 1986, Carnegie Mellon
 University), and the Gaussian 82(TM) system (copyright 1983,
 Carnegie Mellon University). Gaussian is a federally registered
 trademark of Gaussian, Inc.
  
 This software contains proprietary and confidential information,
 including trade secrets, belonging to Gaussian, Inc.
  
 This software is provided under written license and may be
 used, copied, transmitted, or stored only in accord with that
 written license.
  
 The following legend is applicable only to US Government
 contracts under FAR:
  
                    RESTRICTED RIGHTS LEGEND
  
 Use, reproduction and disclosure by the US Government is
 subject to restrictions as set forth in subparagraphs (a)
 and (c) of the Commercial Computer Software - Restricted
 Rights clause in FAR 52.227-19.
  
 Gaussian, Inc.
 340 Quinnipiac St., Bldg. 40, Wallingford CT 06492
  
  
 ---------------------------------------------------------------
 Warning -- This program may not be used in any manner that
 competes with the business of Gaussian, Inc. or will provide
 assistance to any competitor of Gaussian, Inc.  The licensee
 of this program is prohibited from giving any competitor of
 Gaussian, Inc. access to this program.  By using this program,
 the user acknowledges that Gaussian, Inc. is engaged in the
 business of creating and licensing software in the field of
 computational chemistry and represents and warrants to the
 licensee that it is not a competitor of Gaussian, Inc. and that
 it will not use this program in any manner prohibited above.
 ---------------------------------------------------------------
  

 Cite this work as:
 Gaussian 16, Revision C.01,
 M. J. Frisch, G. W. Trucks, H. B. Schlegel, G. E. Scuseria, 
 M. A. Robb, J. R. Cheeseman, G. Scalmani, V. Barone, 
 G. A. Petersson, H. Nakatsuji, X. Li, M. Caricato, A. V. Marenich, 
 J. Bloino, B. G. Janesko, R. Gomperts, B. Mennucci, H. P. Hratchian, 
 J. V. Ortiz, A. F. Izmaylov, J. L. Sonnenberg, D. Williams-Young, 
 F. Ding, F. Lipparini, F. Egidi, J. Goings, B. Peng, A. Petrone, 
 T. Henderson, D. Ranasinghe, V. G. Zakrzewski, J. Gao, N. Rega, 
 G. Zheng, W. Liang, M. Hada, M. Ehara, K. Toyota, R. Fukuda, 
 J. Hasegawa, M. Ishida, T. Nakajima, Y. Honda, O. Kitao, H. Nakai, 
 T. Vreven, K. Throssell, J. A. Montgomery, Jr., J. E. Peralta, 
 F. Ogliaro, M. J. Bearpark, J. J. Heyd, E. N. Brothers, K. N. Kudin, 
 V. N. Staroverov, T. A. Keith, R. Kobayashi, J. Normand, 
 K. Raghavachari, A. P. Rendell, J. C. Burant, S. S. Iyengar, 
 J. Tomasi, M. Cossi, J. M. Millam, M. Klene, C. Adamo, R. Cammi, 
 J. W. Ochterski, R. L. Martin, K. Morokuma, O. Farkas, 
 J. B. Foresman, and D. J. Fox, Gaussian, Inc., Wallingford CT, 2019.
 
 ******************************************
 Gaussian 16:  ES64L-G16RevC.01  3-Jul-2019
                11-Oct-2024 
 ******************************************
 %nprocshared=8
 Will use up to    8 processors via shared memory.
 %mem=8800MB
 -----------------------------
 #T MP2/cc-pVDZ symm=veryloose
 -----------------------------
 ----------------------------------
 c1ccc2cc3c(ccc4c5ccccc5ccc34)cc2c1
 ----------------------------------
 Symbolic Z-matrix:
 Charge =  0 Multiplicity = 1
 C                     0.58452  -5.84745   0. 
 C                    -0.81903  -5.59939   0. 
 C                    -1.29722  -4.31058   0. 
 C                    -0.40353  -3.19609   0. 
 C                    -0.86672  -1.86719   0. 
 C                     0.       -0.76989   0. 
 C                     1.41912  -1.03235   0. 
 C                     2.32627   0.07843   0. 
 C                     1.87469   1.36336   0. 
 C                     0.46994   1.67688   0. 
 C                     0.00724   3.05098   0. 
 C                     0.88722   4.16639   0. 
 C                     0.40939   5.4641    0. 
 C                    -0.98031   5.71677   0. 
 C                    -1.86429   4.65642   0. 
 C                    -1.39847   3.31664   0. 
 C                    -2.30913   2.2195    0. 
 C                    -1.86043   0.92688   0. 
 C                    -0.4657    0.61502   0. 
 C                     1.88828  -2.34875   0. 
 C                     1.01485  -3.44831   0. 
 C                     1.4751   -4.80047   0. 
 H                     0.94927  -6.8789    0. 
 H                    -1.51522  -6.44328   0. 
 H                    -2.37467  -4.11777   0. 
 H                    -1.94757  -1.71769   0. 
 H                     3.40073  -0.12824   0. 
 H                     2.60454   2.1732    0. 
 H                     1.9667    4.01092   0. 
 H                     1.11466   6.30043   0. 
 H                    -1.35042   6.74615   0. 
 H                    -2.9443    4.83371   0. 
 H                    -3.38306   2.42915   0. 
 H                    -2.59362   0.11975   0. 
 H                     2.96852  -2.52608   0. 
 H                     2.55359  -4.98665   0. 
 
                    Distance matrix (angstroms):
                    1          2          3          4          5
     1  C    0.000000
     2  C    1.425303   0.000000
     3  C    2.429593   1.374660   0.000000
     4  C    2.829479   2.438944   1.428549   0.000000
     5  C    4.236574   3.732498   2.481021   1.407309   0.000000
     6  C    5.111096   4.898452   3.770842   2.459533   1.398310
     7  C    4.886892   5.085970   4.257377   2.829105   2.433521
     8  C    6.176549   6.490801   5.691492   4.263137   3.739069
     9  C    7.325318   7.465647   6.500349   5.096948   4.236952
    10  C    7.525199   7.389548   6.242792   4.950635   3.787753
    11  C    8.917138   8.689738   7.476240   6.260565   4.995221
    12  C   10.018417   9.913711   8.753900   7.474772   6.283344
    13  C   11.312910  11.131477   9.922544   8.698266   7.441527
    14  C   11.669616  11.317305  10.032356   8.931507   7.584814
    15  C   10.785544  10.308932   8.984909   7.987224   6.599443
    16  C    9.376184   8.934835   7.627891   6.588293   5.211035
    17  C    8.570231   7.959605   6.608013   5.741072   4.333771
    18  C    7.202042   6.608835   5.267657   4.372813   2.965523
    19  C    6.547251   6.224441   4.995291   3.811620   2.514397
    20  C    3.733722   4.230383   3.741145   2.443439   2.796769
    21  C    2.437434   2.826705   2.467627   1.440633   2.457687
    22  C    1.374520   2.429258   2.815270   2.470482   3.753428
    23  H    1.094039   2.182664   3.412179   3.923406   5.330572
    24  H    2.182637   1.093996   2.143810   3.432205   4.621805
    25  H    3.427627   2.148304   1.094570   2.175980   2.709065
    26  H    4.844216   4.042420   2.673204   2.137695   1.091147
    27  H    6.374980   6.909396   6.289883   4.887136   4.608149
    28  H    8.271113   8.493168   7.567238   6.154495   5.326763
    29  H    9.954798  10.005915   8.938712   7.586772   6.525375
    30  H   12.159447  12.055904  10.881669   9.617116   8.404520
    31  H   12.741384  12.356969  11.056859   9.987235   8.626916
    32  H   11.248989  10.647357   9.291440   8.422186   7.015584
    33  H    9.178450   8.428032   7.055122   6.365612   4.979015
    34  H    6.760779   5.988133   4.616114   3.973831   2.632517
    35  H    4.088394   4.877574   4.623954   3.437971   3.891422
    36  H    2.149002   3.427827   3.909705   3.456972   4.629202
                    6          7          8          9         10
     6  C    0.000000
     7  C    1.443191   0.000000
     8  C    2.476125   1.434142   0.000000
     9  C    2.839930   2.438641   1.361971   0.000000
    10  C    2.491486   2.870692   2.449693   1.439309   0.000000
    11  C    3.820877   4.320536   3.770142   2.517029   1.449916
    12  C    5.015378   5.225886   4.333858   2.971887   2.524244
    13  C    6.247420   6.574460   5.716636   4.354679   3.787711
    14  C    6.560317   7.162958   6.536389   5.206077   4.292316
    15  C    5.737630   6.568330   6.206354   4.982393   3.785013
    16  C    4.319194   5.181948   4.935556   3.811677   2.485917
    17  C    3.777367   4.947161   5.105989   4.270517   2.831549
    18  C    2.517985   3.820224   4.271814   3.760540   2.448089
    19  C    1.461112   2.503278   2.843070   2.457119   1.415261
    20  C    2.461385   1.397502   2.466384   3.712134   4.268181
    21  C    2.864234   2.449542   3.762670   4.887884   5.154067
    22  C    4.292027   3.768530   4.952589   6.176764   6.554871
    23  H    6.182322   5.865394   7.092289   8.294044   8.569190
    24  H    5.872239   6.155356   7.568994   8.510873   8.359288
    25  H    4.104556   4.890060   6.301349   6.935405   6.455212
    26  H    2.165958   3.435745   4.635928   4.909436   4.167430
    27  H    3.460732   2.178113   1.094150   2.133930   3.442086
    28  H    3.930064   3.417717   2.113172   1.090196   2.191541
    29  H    5.169536   5.072919   3.948900   2.649166   2.772738
    30  H    7.157648   7.339106   6.338876   4.995236   4.668292
    31  H    7.636395   8.256849   7.614238   6.275017   5.386213
    32  H    6.330024   7.310961   7.098705   5.938518   4.650015
    33  H    4.656071   5.919717   6.174338   5.364690   3.925758
    34  H    2.741956   4.174860   4.920066   4.638138   3.436572
    35  H    3.449102   2.152169   2.682524   4.040317   4.889550
    36  H    4.929694   4.113813   5.070176   6.386194   6.981701
                   11         12         13         14         15
    11  C    0.000000
    12  C    1.420737   0.000000
    13  C    2.446401   1.382886   0.000000
    14  C    2.842832   2.427204   1.412480   0.000000
    15  C    2.465780   2.794803   2.412878   1.380499   0.000000
    16  C    1.430593   2.438529   2.807122   2.436284   1.418448
    17  C    2.461086   3.742595   4.232943   3.741216   2.477190
    18  C    2.828428   4.247822   5.073308   4.870077   3.729537
    19  C    2.481447   3.800345   4.927412   5.127639   4.276559
    20  C    5.717992   6.591603   7.951593   8.560460   7.946963
    21  C    6.576929   7.615767   8.932950   9.379728   8.600931
    22  C    7.987482   8.986111  10.319746  10.800063  10.029170
    23  H    9.974463  11.045464  12.354802  12.742611  11.873485
    24  H    9.615548  10.878267  12.061913  12.171805  11.105181
    25  H    7.554106   8.903216   9.978141   9.932898   8.789020
    26  H    5.153790   6.531345   7.558667   7.497122   6.374654
    27  H    4.650075   4.976105   6.342115   7.304632   7.114310
    28  H    2.741617   2.630974   3.955849   5.040639   5.112421
    29  H    2.181966   1.090625   2.130012   3.405112   3.884995
    30  H    3.432975   2.146128   1.094009   2.174753   3.402490
    31  H    3.936692   3.414994   2.177287   1.093897   2.151989
    32  H    3.448147   3.889192   3.412422   2.153384   1.094462
    33  H    3.446860   4.610128   4.857325   4.072058   2.695806
    34  H    3.918745   5.337740   6.130261   5.824891   4.594913
    35  H    6.314486   7.008635   8.390002   9.139901   8.657038
    36  H    8.431333   9.303491  10.668449  11.271718  10.606904
                   16         17         18         19         20
    16  C    0.000000
    17  C    1.425844   0.000000
    18  C    2.434000   1.368275   0.000000
    19  C    2.858113   2.443885   1.429175   0.000000
    20  C    6.549764   6.203801   4.978218   3.784861   0.000000
    21  C    7.182521   6.570603   5.235413   4.324656   1.404242
    22  C    8.610741   7.974980   6.627847   5.752758   2.486288
    23  H   10.462355   9.664260   8.296062   7.626332   4.626442
    24  H    9.760614   8.699075   7.378239   7.135896   5.324369
    25  H    7.498230   6.337606   5.070796   5.103282   4.615431
    26  H    5.064191   3.953754   2.646010   2.763602   3.887419
    27  H    5.907579   6.173681   5.365921   3.937220   2.686664
    28  H    4.163116   4.913888   4.635656   3.443008   4.578327
    29  H    3.436044   4.635941   4.915108   4.177170   6.360160
    30  H    3.901131   5.326948   6.142168   5.900971   8.683715
    31  H    3.429849   4.627067   5.841577   6.194637   9.654351
    32  H    2.165892   2.690269   4.054386   4.892932   8.656881
    33  H    2.173995   1.094209   2.138976   3.435418   7.114455
    34  H    3.412985   2.118926   1.090419   2.184793   5.116733
    35  H    7.294377   7.097467   5.936474   4.654068   1.094695
    36  H    9.195835   8.693363   7.379259   6.363553   2.720502
                   21         22         23         24         25
    21  C    0.000000
    22  C    1.428347   0.000000
    23  H    3.431220   2.143915   0.000000
    24  H    3.920598   3.411863   2.502687   0.000000
    25  H    3.455006   3.909838   4.321157   2.479241   0.000000
    26  H    3.430888   4.606324   5.918593   4.745321   2.437784
    27  H    4.088426   5.053488   7.181993   8.002884   7.019373
    28  H    5.841954   7.064537   9.202196   9.550708   8.023022
    29  H    7.519716   8.825096  10.937249  11.018804   9.215380
    30  H    9.749250  11.106752  13.180370  13.012239  10.987011
    31  H   10.465252  11.887306  13.817763  13.190457  10.912100
    32  H    9.179686  10.599456  12.342812  11.367173   8.969585
    33  H    7.340722   8.710293  10.266885   9.066910   6.624129
    34  H    5.074654   6.384597   7.844309   6.651039   4.243179
    35  H    2.160397   2.720873   4.798377   5.953848   5.575229
    36  H    2.175825   1.094441   2.480819   4.321683   5.004271
                   26         27         28         29         30
    26  H    0.000000
    27  H    5.579488   0.000000
    28  H    5.988388   2.435271   0.000000
    29  H    6.938199   4.380539   1.945269   0.000000
    30  H    8.582984   6.823048   4.387917   2.442914   0.000000
    31  H    8.484884   8.356477   6.045959   4.299393   2.505051
    32  H    6.626787   8.054832   6.153693   4.979449   4.315834
    33  H    4.388276   7.249835   5.993073   5.578709   5.934333
    34  H    1.947713   5.999474   5.589051   5.994808   7.207781
    35  H    4.982114   2.436477   4.713352   6.613322   9.019096
    36  H    5.562963   4.931710   7.160029   9.016693  11.378433
                   31         32         33         34         35
    31  H    0.000000
    32  H    2.489557   0.000000
    33  H    4.771595   2.444257   0.000000
    34  H    6.742009   4.726979   2.440604   0.000000
    35  H   10.228758   9.440755   8.055863   6.159366   0.000000
    36  H   12.365271  11.254608   9.499368   7.250456   2.495311
                   36
    36  H    0.000000
 Framework group  CS[SG(C22H14)]
 Deg. of freedom    69
                         Standard orientation:                         
 ---------------------------------------------------------------------
 Center     Atomic      Atomic             Coordinates (Angstroms)
 Number     Number       Type             X           Y           Z
 ---------------------------------------------------------------------
      1          6           0        0.584523    5.847452    0.000000
      2          6           0       -0.819027    5.599386    0.000000
      3          6           0       -1.297217    4.310579    0.000000
      4          6           0       -0.403531    3.196094    0.000000
      5          6           0       -0.866717    1.867193    0.000000
      6          6           0        0.000000    0.769890    0.000000
      7          6           0        1.419124    1.032355    0.000000
      8          6           0        2.326274   -0.078429    0.000000
      9          6           0        1.874690   -1.363356    0.000000
     10          6           0        0.469942   -1.676875    0.000000
     11          6           0        0.007242   -3.050980    0.000000
     12          6           0        0.887215   -4.166391    0.000000
     13          6           0        0.409388   -5.464102    0.000000
     14          6           0       -0.980309   -5.716770    0.000000
     15          6           0       -1.864293   -4.656417    0.000000
     16          6           0       -1.398468   -3.316640    0.000000
     17          6           0       -2.309129   -2.219495    0.000000
     18          6           0       -1.860434   -0.926882    0.000000
     19          6           0       -0.465700   -0.615019    0.000000
     20          6           0        1.888282    2.348753    0.000000
     21          6           0        1.014853    3.448306    0.000000
     22          6           0        1.475102    4.800469    0.000000
     23          1           0        0.949268    6.878899    0.000000
     24          1           0       -1.515215    6.443276    0.000000
     25          1           0       -2.374672    4.117772    0.000000
     26          1           0       -1.947574    1.717693    0.000000
     27          1           0        3.400728    0.128242    0.000000
     28          1           0        2.604541   -2.173199    0.000000
     29          1           0        1.966702   -4.010924    0.000000
     30          1           0        1.114658   -6.300433    0.000000
     31          1           0       -1.350421   -6.746152    0.000000
     32          1           0       -2.944300   -4.833707    0.000000
     33          1           0       -3.383064   -2.429153    0.000000
     34          1           0       -2.593618   -0.119754    0.000000
     35          1           0        2.968519    2.526078    0.000000
     36          1           0        2.553591    4.986649    0.000000
 ---------------------------------------------------------------------
 Rotational constants (GHZ):           0.9975485           0.1412332           0.1237173
   378 basis functions,   824 primitive gaussians,   400 cartesian basis functions
    73 alpha electrons       73 beta electrons
       nuclear repulsion energy      1521.6988919807 Hartrees.
 NAtoms=   36 NActive=   36 NUniq=   36 SFac= 1.00D+00 NAtFMM=   60 NAOKFM=F Big=F
 ExpMin= 1.22D-01 ExpMax= 6.67D+03 ExpMxC= 2.28D+02 IAcc=3 IRadAn=         5 AccDes= 0.00D+00
 Harris functional with IExCor=  205 and IRadAn=       5 diagonalized for initial guess.
 HarFok:  IExCor=  205 AccDes= 0.00D+00 IRadAn=         5 IDoV= 1 UseB2=F ITyADJ=14
 ICtDFT=  3500011 ScaDFX=  1.000000  1.000000  1.000000  1.000000
 FoFCou: FMM=F IPFlag=           0 FMFlag=      100000 FMFlg1=           0
         NFxFlg=           0 DoJE=T BraDBF=F KetDBF=T FulRan=T
         wScrn=  0.000000 ICntrl=       500 IOpCl=  0 I1Cent=   200000004 NGrid=           0
         NMat0=    1 NMatS0=      1 NMatT0=    0 NMatD0=    1 NMtDS0=    0 NMtDT0=    0
 Petite list used in FoFCou.
 Initial guess orbital symmetries:
       Occupied  (A') (A') (A') (A') (A') (A') (A') (A') (A') (A')
                 (A') (A') (A') (A') (A') (A') (A') (A') (A') (A')
                 (A') (A') (A') (A') (A') (A') (A') (A') (A') (A')
                 (A') (A') (A') (A') (A') (A') (A') (A') (A') (A')
                 (A') (A') (A') (A') (A') (A') (A') (A') (A') (A')
                 (A') (A') (A') (A') (A') (A") (A') (A') (A") (A')
                 (A') (A") (A') (A') (A') (A") (A") (A") (A") (A")
                 (A") (A") (A")
       Virtual   (A") (A") (A") (A") (A") (A") (A") (A") (A") (A')
                 (A') (A') (A') (A') (A') (A") (A') (A') (A') (A')
                 (A') (A") (A') (A') (A') (A') (A') (A') (A') (A')
                 (A') (A') (A') (A') (A') (A') (A') (A') (A') (A')
                 (A') (A') (A') (A') (A') (A') (A') (A") (A') (A')
                 (A") (A') (A') (A") (A") (A') (A') (A') (A') (A")
                 (A') (A') (A') (A") (A') (A') (A') (A') (A') (A')
                 (A") (A') (A') (A") (A') (A') (A") (A') (A") (A")
                 (A') (A") (A") (A") (A') (A") (A') (A') (A') (A")
                 (A') (A') (A') (A") (A') (A') (A") (A') (A") (A')
                 (A') (A') (A') (A") (A") (A") (A") (A") (A') (A')
                 (A') (A') (A") (A") (A') (A') (A') (A') (A") (A')
                 (A') (A") (A') (A') (A") (A') (A") (A') (A') (A")
                 (A") (A') (A") (A") (A') (A") (A') (A") (A') (A")
                 (A') (A") (A') (A") (A') (A') (A') (A") (A') (A')
                 (A') (A') (A') (A') (A') (A') (A') (A') (A") (A')
                 (A") (A') (A') (A") (A') (A") (A') (A") (A') (A')
                 (A') (A") (A') (A') (A') (A") (A') (A') (A") (A')
                 (A") (A") (A') (A") (A') (A') (A') (A') (A') (A')
                 (A') (A") (A') (A') (A') (A") (A') (A") (A') (A')
                 (A") (A') (A") (A") (A") (A') (A") (A') (A") (A')
                 (A") (A') (A") (A') (A') (A') (A') (A") (A") (A')
                 (A') (A") (A') (A') (A') (A') (A") (A') (A') (A")
                 (A') (A') (A") (A') (A') (A') (A") (A') (A') (A")
                 (A') (A') (A") (A') (A') (A') (A") (A') (A") (A')
                 (A') (A') (A') (A") (A') (A") (A') (A") (A') (A')
                 (A') (A') (A') (A') (A') (A") (A") (A') (A') (A")
                 (A') (A") (A') (A') (A') (A') (A') (A') (A') (A')
                 (A') (A') (A') (A') (A') (A') (A') (A') (A') (A')
                 (A') (A') (A') (A') (A') (A') (A') (A') (A') (A')
                 (A') (A') (A') (A') (A')
 The electronic state of the initial guess is 1-A'.
 Integral accuracy reduced to 1.0D-05 until final iterations.
 Initial convergence to 1.0D-05 achieved.  Increase integral accuracy.
 SCF Done:  E(RHF) =  -841.362812339     A.U. after   16 cycles
            NFock= 16  Conv=0.79D-08     -V/T= 2.0013
 ExpMin= 1.22D-01 ExpMax= 6.67D+03 ExpMxC= 2.28D+02 IAcc=3 IRadAn=         5 AccDes= 0.00D+00
 HarFok:  IExCor=  205 AccDes= 0.00D+00 IRadAn=         5 IDoV=-2 UseB2=F ITyADJ=14
 ICtDFT= 12500011 ScaDFX=  1.000000  1.000000  1.000000  1.000000
 GSVD:  LWork=        -660 too small for GESVD, short by        2750 words or        2750 for optimal perf.
 NROrb=    356 NOA=    51 NOB=    51 NVA=   305 NVB=   305

 **** Warning!!: The largest alpha MO coefficient is  0.15722627D+02

 Estimated scratch disk usage=  3017565015 words.
 Actual    scratch disk usage=  2273762647 words.
 (rs|ai) integrals will be sorted in core.
 ANorm=    0.1453515049D+01
 E2 =    -0.2845675386D+01 EUMP2 =    -0.84420848772510D+03

 **********************************************************************

            Population analysis using the SCF Density.

 **********************************************************************

 Orbital symmetries:
       Occupied  (A') (A') (A') (A') (A') (A') (A') (A') (A') (A')
                 (A') (A') (A') (A') (A') (A') (A') (A') (A') (A')
                 (A') (A') (A') (A') (A') (A') (A') (A') (A') (A')
                 (A') (A') (A') (A') (A') (A') (A') (A') (A') (A')
                 (A') (A') (A') (A') (A') (A') (A') (A') (A') (A')
                 (A') (A') (A') (A') (A') (A") (A') (A') (A") (A')
                 (A') (A") (A') (A') (A') (A") (A") (A") (A") (A")
                 (A") (A") (A")
       Virtual   (A") (A") (A") (A") (A") (A") (A') (A') (A') (A')
                 (A') (A') (A') (A") (A') (A') (A') (A") (A') (A')
                 (A") (A') (A') (A') (A") (A') (A') (A') (A') (A")
                 (A') (A') (A') (A') (A') (A') (A') (A') (A') (A')
                 (A') (A') (A') (A') (A') (A') (A") (A') (A') (A")
                 (A') (A') (A') (A") (A") (A') (A') (A') (A') (A")
                 (A") (A') (A') (A') (A") (A') (A') (A') (A') (A")
                 (A') (A') (A') (A') (A") (A') (A") (A') (A") (A')
                 (A") (A') (A") (A") (A") (A') (A') (A") (A') (A')
                 (A") (A') (A") (A') (A') (A') (A') (A') (A") (A')
                 (A') (A") (A') (A") (A') (A") (A") (A") (A') (A')
                 (A") (A') (A') (A") (A') (A') (A') (A') (A') (A')
                 (A") (A') (A') (A") (A') (A') (A") (A") (A') (A')
                 (A") (A") (A") (A') (A') (A") (A') (A") (A') (A")
                 (A') (A') (A") (A') (A") (A") (A') (A') (A") (A')
                 (A') (A') (A') (A') (A') (A') (A') (A') (A") (A')
                 (A') (A") (A') (A') (A") (A') (A") (A') (A") (A')
                 (A') (A") (A') (A") (A') (A') (A") (A") (A") (A')
                 (A') (A') (A") (A') (A') (A') (A') (A') (A") (A')
                 (A') (A') (A') (A") (A") (A") (A") (A') (A") (A')
                 (A') (A') (A") (A') (A") (A') (A') (A') (A') (A")
                 (A") (A') (A') (A") (A') (A') (A') (A") (A') (A")
                 (A') (A") (A') (A') (A') (A") (A') (A') (A") (A')
                 (A') (A') (A") (A') (A') (A') (A') (A") (A') (A')
                 (A") (A') (A') (A") (A') (A") (A') (A') (A") (A')
                 (A') (A') (A") (A') (A') (A") (A") (A') (A') (A')
                 (A') (A') (A') (A') (A") (A') (A") (A') (A') (A")
                 (A") (A') (A') (A') (A') (A') (A') (A') (A') (A')
                 (A') (A') (A') (A') (A') (A') (A') (A') (A') (A')
                 (A') (A') (A') (A') (A') (A') (A') (A') (A') (A')
                 (A') (A') (A') (A') (A')
 The electronic state is 1-A'.
 Alpha  occ. eigenvalues --  -11.25677 -11.25622 -11.25545 -11.25453 -11.25193
 Alpha  occ. eigenvalues --  -11.25176 -11.25076 -11.25036 -11.24665 -11.24634
 Alpha  occ. eigenvalues --  -11.24622 -11.24616 -11.24584 -11.24584 -11.24563
 Alpha  occ. eigenvalues --  -11.24539 -11.24526 -11.24471 -11.24466 -11.24454
 Alpha  occ. eigenvalues --  -11.24424 -11.24390  -1.19472  -1.17436  -1.14269
 Alpha  occ. eigenvalues --   -1.10357  -1.08625  -1.05957  -1.03821  -1.02705
 Alpha  occ. eigenvalues --   -0.99422  -0.98701  -0.96042  -0.88108  -0.85957
 Alpha  occ. eigenvalues --   -0.85531  -0.82138  -0.81643  -0.80928  -0.75271
 Alpha  occ. eigenvalues --   -0.72199  -0.71312  -0.70236  -0.67281  -0.66467
 Alpha  occ. eigenvalues --   -0.65312  -0.63083  -0.62210  -0.61077  -0.60227
 Alpha  occ. eigenvalues --   -0.59739  -0.58575  -0.57459  -0.56910  -0.56179
 Alpha  occ. eigenvalues --   -0.55527  -0.54588  -0.54091  -0.52878  -0.50937
 Alpha  occ. eigenvalues --   -0.50181  -0.48708  -0.48253  -0.47844  -0.46042
 Alpha  occ. eigenvalues --   -0.43966  -0.41944  -0.39492  -0.35905  -0.34240
 Alpha  occ. eigenvalues --   -0.30158  -0.28842  -0.25277
 Alpha virt. eigenvalues --    0.04999   0.08591   0.09554   0.13955   0.15374
 Alpha virt. eigenvalues --    0.17968   0.18111   0.18468   0.18660   0.19967
 Alpha virt. eigenvalues --    0.20333   0.22014   0.22762   0.23129   0.24270
 Alpha virt. eigenvalues --    0.24397   0.25716   0.25968   0.27109   0.28953
 Alpha virt. eigenvalues --    0.32970   0.33070   0.34111   0.37548   0.38775
 Alpha virt. eigenvalues --    0.39426   0.40833   0.41147   0.43382   0.44252
 Alpha virt. eigenvalues --    0.44670   0.44893   0.45848   0.46261   0.46387
 Alpha virt. eigenvalues --    0.48445   0.49593   0.50881   0.52625   0.54797
 Alpha virt. eigenvalues --    0.56272   0.58096   0.59490   0.63452   0.63959
 Alpha virt. eigenvalues --    0.64688   0.65431   0.66052   0.66157   0.66919
 Alpha virt. eigenvalues --    0.67001   0.67558   0.68358   0.68529   0.68748
 Alpha virt. eigenvalues --    0.69176   0.69683   0.70115   0.70752   0.70875
 Alpha virt. eigenvalues --    0.71467   0.72225   0.72537   0.73204   0.73332
 Alpha virt. eigenvalues --    0.73560   0.74021   0.74385   0.74954   0.75312
 Alpha virt. eigenvalues --    0.75439   0.76027   0.76317   0.76582   0.76812
 Alpha virt. eigenvalues --    0.77352   0.77637   0.78393   0.79341   0.80501
 Alpha virt. eigenvalues --    0.81109   0.81404   0.81777   0.83486   0.86313
 Alpha virt. eigenvalues --    0.86650   0.86779   0.87775   0.88299   0.88897
 Alpha virt. eigenvalues --    0.89794   0.90278   0.91623   0.91763   0.91985
 Alpha virt. eigenvalues --    0.92668   0.93932   0.94169   0.94502   0.94889
 Alpha virt. eigenvalues --    0.98437   0.98849   0.98960   0.99858   1.01236
 Alpha virt. eigenvalues --    1.02836   1.04294   1.05736   1.08737   1.09550
 Alpha virt. eigenvalues --    1.10804   1.11105   1.11496   1.11596   1.12132
 Alpha virt. eigenvalues --    1.13074   1.13519   1.13987   1.14117   1.15086
 Alpha virt. eigenvalues --    1.15245   1.15815   1.16902   1.17359   1.18297
 Alpha virt. eigenvalues --    1.19375   1.19381   1.20345   1.20622   1.20933
 Alpha virt. eigenvalues --    1.22184   1.22377   1.23022   1.23105   1.24173
 Alpha virt. eigenvalues --    1.24551   1.25138   1.26734   1.27592   1.27680
 Alpha virt. eigenvalues --    1.29390   1.29529   1.30106   1.31412   1.31935
 Alpha virt. eigenvalues --    1.32922   1.33049   1.34641   1.35319   1.35822
 Alpha virt. eigenvalues --    1.36872   1.37290   1.40876   1.43257   1.51010
 Alpha virt. eigenvalues --    1.53348   1.54565   1.56323   1.58894   1.59464
 Alpha virt. eigenvalues --    1.60252   1.61936   1.62116   1.63093   1.63665
 Alpha virt. eigenvalues --    1.63839   1.65954   1.66122   1.66503   1.68483
 Alpha virt. eigenvalues --    1.68986   1.69964   1.70254   1.72523   1.72664
 Alpha virt. eigenvalues --    1.73602   1.74264   1.74575   1.76228   1.77082
 Alpha virt. eigenvalues --    1.77367   1.78219   1.79568   1.81181   1.82652
 Alpha virt. eigenvalues --    1.84652   1.84882   1.85507   1.86237   1.87010
 Alpha virt. eigenvalues --    1.87853   1.88894   1.89327   1.89580   1.90562
 Alpha virt. eigenvalues --    1.91024   1.91506   1.92112   1.92861   1.93610
 Alpha virt. eigenvalues --    1.94045   1.94640   1.95102   1.95414   1.96051
 Alpha virt. eigenvalues --    1.96368   1.98310   1.99361   1.99889   2.00426
 Alpha virt. eigenvalues --    2.01027   2.01140   2.03210   2.03632   2.04367
 Alpha virt. eigenvalues --    2.05617   2.05723   2.06269   2.06337   2.07837
 Alpha virt. eigenvalues --    2.08608   2.09468   2.09702   2.10532   2.11200
 Alpha virt. eigenvalues --    2.13567   2.13691   2.13749   2.14225   2.15661
 Alpha virt. eigenvalues --    2.17274   2.17362   2.17586   2.17928   2.19136
 Alpha virt. eigenvalues --    2.20618   2.22461   2.22741   2.23402   2.24051
 Alpha virt. eigenvalues --    2.25142   2.25254   2.26872   2.27124   2.30033
 Alpha virt. eigenvalues --    2.30505   2.31595   2.32447   2.34317   2.34904
 Alpha virt. eigenvalues --    2.36529   2.36796   2.38484   2.38876   2.43138
 Alpha virt. eigenvalues --    2.44190   2.45493   2.46489   2.48715   2.49896
 Alpha virt. eigenvalues --    2.51016   2.53125   2.53697   2.56989   2.57089
 Alpha virt. eigenvalues --    2.58171   2.58811   2.62636   2.64535   2.68274
 Alpha virt. eigenvalues --    2.68996   2.71196   2.71581   2.72219   2.74074
 Alpha virt. eigenvalues --    2.76393   2.78038   2.78538   2.80412   2.82553
 Alpha virt. eigenvalues --    2.83985   2.92381   2.93798   2.95249   2.96450
 Alpha virt. eigenvalues --    2.99674   3.02807   3.03723   3.04269   3.05443
 Alpha virt. eigenvalues --    3.07226   3.08808   3.10807   3.12646   3.16115
 Alpha virt. eigenvalues --    3.20700   3.22013   3.27494   3.29629   3.30487
 Alpha virt. eigenvalues --    3.63418   3.71050   3.79720   3.90996   3.96195
          Condensed to atoms (all electrons):
 Mulliken charges:
               1
     1  C   -0.015873
     2  C   -0.019122
     3  C    0.022245
     4  C   -0.084029
     5  C    0.035871
     6  C   -0.028622
     7  C   -0.089978
     8  C    0.059454
     9  C   -0.013796
    10  C   -0.038834
    11  C   -0.036074
    12  C   -0.028732
    13  C    0.004511
    14  C   -0.013079
    15  C    0.029510
    16  C   -0.098420
    17  C    0.057746
    18  C   -0.017148
    19  C   -0.034847
    20  C    0.079599
    21  C   -0.097306
    22  C    0.023915
    23  H    0.031065
    24  H    0.030310
    25  H    0.016971
    26  H    0.015648
    27  H    0.014938
    28  H    0.024445
    29  H    0.025196
    30  H    0.027648
    31  H    0.029664
    32  H    0.018534
    33  H    0.016513
    34  H    0.023767
    35  H    0.011363
    36  H    0.016946
 Sum of Mulliken charges =  -0.00000
 Mulliken charges with hydrogens summed into heavy atoms:
               1
     1  C    0.015193
     2  C    0.011188
     3  C    0.039215
     4  C   -0.084029
     5  C    0.051519
     6  C   -0.028622
     7  C   -0.089978
     8  C    0.074392
     9  C    0.010650
    10  C   -0.038834
    11  C   -0.036074
    12  C   -0.003537
    13  C    0.032159
    14  C    0.016585
    15  C    0.048044
    16  C   -0.098420
    17  C    0.074259
    18  C    0.006618
    19  C   -0.034847
    20  C    0.090962
    21  C   -0.097306
    22  C    0.040862
 Electronic spatial extent (au):  <R**2>=           8189.5581
 Charge=              0.0000 electrons
 Dipole moment (field-independent basis, Debye):
    X=             -0.0292    Y=             -0.0005    Z=              0.0000  Tot=              0.0292
 Unable to Open any file for archive entry.
 1\1\GINC-NODE01\SP\RMP2-FC\CC-pVDZ\C22H14\XUHJ\11-Oct-2024\0\\#T MP2/c
 c-pVDZ symm=veryloose\\c1ccc2cc3c(ccc4c5ccccc5ccc34)cc2c1\\0,1\C,0,0.5
 84523,-5.847452,0.\C,0,-0.819027,-5.599386,0.\C,0,-1.297217,-4.310579,
 0.\C,0,-0.403531,-3.196094,0.\C,0,-0.866717,-1.867193,0.\C,0,0.,-0.769
 89,0.\C,0,1.419124,-1.032355,0.\C,0,2.326274,0.078429,0.\C,0,1.87469,1
 .363356,0.\C,0,0.469942,1.676875,0.\C,0,0.007242,3.05098,0.\C,0,0.8872
 15,4.166391,0.\C,0,0.409388,5.464102,0.\C,0,-0.980309,5.71677,0.\C,0,-
 1.864293,4.656417,0.\C,0,-1.398468,3.31664,0.\C,0,-2.309129,2.219495,0
 .\C,0,-1.860434,0.926882,0.\C,0,-0.4657,0.615019,0.\C,0,1.888282,-2.34
 8753,0.\C,0,1.014853,-3.448306,0.\C,0,1.475102,-4.800469,0.\H,0,0.9492
 68,-6.878899,0.\H,0,-1.515215,-6.443276,0.\H,0,-2.374672,-4.117772,0.\
 H,0,-1.947574,-1.717693,0.\H,0,3.400728,-0.128242,0.\H,0,2.604541,2.17
 3199,0.\H,0,1.966702,4.010924,0.\H,0,1.114658,6.300433,0.\H,0,-1.35042
 1,6.746152,0.\H,0,-2.9443,4.833707,0.\H,0,-3.383064,2.429153,0.\H,0,-2
 .593618,0.119754,0.\H,0,2.968519,-2.526078,0.\H,0,2.553591,-4.986649,0
 .\\Version=ES64L-G16RevC.01\State=1-A'\HF=-841.3628123\MP2=-844.208487
 7\RMSD=7.877e-09\PG=CS [SG(C22H14)]\\@
 The archive entry for this job was punched.


 THE DIFFICULTY IN SCIENCE IS OFTEN NOT SO MUCH HOW
 TO MAKE A DISCOVERY BUT RATHER TO KNOW ONE HAS MADE IT.

                                                   -- J. D. BERNAL
 Job cpu time:       0 days  0 hours 11 minutes 48.0 seconds.
 Elapsed time:       0 days  0 hours  1 minutes 28.5 seconds.
 File lengths (MBytes):  RWF=  17432 Int=      0 D2E=      0 Chk=     10 Scr=      1
 Normal termination of Gaussian 16 at Fri Oct 11 16:01:31 2024.
