 Entering Gaussian System, Link 0=g16
 Initial command:
 /opt/g16/l1.exe "/tmp/Gau-2576130.inp" -scrdir="/tmp/"
 Entering Link 1 = /opt/g16/l1.exe PID=   2576132.
  
 Copyright (c) 1988-2019, Gaussian, Inc.  All Rights Reserved.
  
 This is part of the Gaussian(R) 16 program.  It is based on
 the Gaussian(R) 09 system (copyright 2009, Gaussian, Inc.),
 the Gaussian(R) 03 system (copyright 2003, Gaussian, Inc.),
 the Gaussian(R) 98 system (copyright 1998, Gaussian, Inc.),
 the Gaussian(R) 94 system (copyright 1995, Gaussian, Inc.),
 the Gaussian 92(TM) system (copyright 1992, Gaussian, Inc.),
 the Gaussian 90(TM) system (copyright 1990, Gaussian, Inc.),
 the Gaussian 88(TM) system (copyright 1988, Gaussian, Inc.),
 the Gaussian 86(TM) system (copyright 1986, Carnegie Mellon
 University), and the Gaussian 82(TM) system (copyright 1983,
 Carnegie Mellon University). Gaussian is a federally registered
 trademark of Gaussian, Inc.
  
 This software contains proprietary and confidential information,
 including trade secrets, belonging to Gaussian, Inc.
  
 This software is provided under written license and may be
 used, copied, transmitted, or stored only in accord with that
 written license.
  
 The following legend is applicable only to US Government
 contracts under FAR:
  
                    RESTRICTED RIGHTS LEGEND
  
 Use, reproduction and disclosure by the US Government is
 subject to restrictions as set forth in subparagraphs (a)
 and (c) of the Commercial Computer Software - Restricted
 Rights clause in FAR 52.227-19.
  
 Gaussian, Inc.
 340 Quinnipiac St., Bldg. 40, Wallingford CT 06492
  
  
 ---------------------------------------------------------------
 Warning -- This program may not be used in any manner that
 competes with the business of Gaussian, Inc. or will provide
 assistance to any competitor of Gaussian, Inc.  The licensee
 of this program is prohibited from giving any competitor of
 Gaussian, Inc. access to this program.  By using this program,
 the user acknowledges that Gaussian, Inc. is engaged in the
 business of creating and licensing software in the field of
 computational chemistry and represents and warrants to the
 licensee that it is not a competitor of Gaussian, Inc. and that
 it will not use this program in any manner prohibited above.
 ---------------------------------------------------------------
  

 Cite this work as:
 Gaussian 16, Revision C.01,
 M. J. Frisch, G. W. Trucks, H. B. Schlegel, G. E. Scuseria, 
 M. A. Robb, J. R. Cheeseman, G. Scalmani, V. Barone, 
 G. A. Petersson, H. Nakatsuji, X. Li, M. Caricato, A. V. Marenich, 
 J. Bloino, B. G. Janesko, R. Gomperts, B. Mennucci, H. P. Hratchian, 
 J. V. Ortiz, A. F. Izmaylov, J. L. Sonnenberg, D. Williams-Young, 
 F. Ding, F. Lipparini, F. Egidi, J. Goings, B. Peng, A. Petrone, 
 T. Henderson, D. Ranasinghe, V. G. Zakrzewski, J. Gao, N. Rega, 
 G. Zheng, W. Liang, M. Hada, M. Ehara, K. Toyota, R. Fukuda, 
 J. Hasegawa, M. Ishida, T. Nakajima, Y. Honda, O. Kitao, H. Nakai, 
 T. Vreven, K. Throssell, J. A. Montgomery, Jr., J. E. Peralta, 
 F. Ogliaro, M. J. Bearpark, J. J. Heyd, E. N. Brothers, K. N. Kudin, 
 V. N. Staroverov, T. A. Keith, R. Kobayashi, J. Normand, 
 K. Raghavachari, A. P. Rendell, J. C. Burant, S. S. Iyengar, 
 J. Tomasi, M. Cossi, J. M. Millam, M. Klene, C. Adamo, R. Cammi, 
 J. W. Ochterski, R. L. Martin, K. Morokuma, O. Farkas, 
 J. B. Foresman, and D. J. Fox, Gaussian, Inc., Wallingford CT, 2019.
 
 ******************************************
 Gaussian 16:  ES64L-G16RevC.01  3-Jul-2019
                11-Oct-2024 
 ******************************************
 %nprocshared=8
 Will use up to    8 processors via shared memory.
 %mem=8800MB
 -----------------------------
 #T MP2/cc-pVDZ symm=veryloose
 -----------------------------
 ----------------------------------
 c1ccc2c(c1)ccc1c2ccc2ccc3ccccc3c21
 ----------------------------------
 Symbolic Z-matrix:
 Charge =  0 Multiplicity = 1
 C                     5.33868  -0.88442   0.07367 
 C                     5.14905   0.4744    0.40303 
 C                     3.88002   1.02762   0.39679 
 C                     2.73652   0.25362   0.07199 
 C                     2.93677  -1.12199  -0.25324 
 C                     4.2454   -1.66533  -0.25013 
 C                     1.80388  -1.91487  -0.61355 
 C                     0.53557  -1.41141  -0.55337 
 C                     0.2699   -0.0592   -0.14445 
 C                     1.38919   0.80146   0.05719 
 C                     1.161     2.20152   0.18227 
 C                    -0.09932   2.72392   0.05682 
 C                    -1.23807   1.88111  -0.06936 
 C                    -2.53865   2.45939  -0.23153 
 C                    -3.64953   1.67545  -0.33205 
 C                    -3.55691   0.25956  -0.14134 
 C                    -4.73241  -0.5295   -0.08241 
 C                    -4.68019  -1.869     0.25376 
 C                    -3.43775  -2.4471    0.58261 
 C                    -2.27185  -1.70411   0.49804 
 C                    -2.2757   -0.34789   0.07289 
 C                    -1.07497   0.46978  -0.04741 
 H                     6.34448  -1.31459   0.07733 
 H                     6.00924   1.09622   0.66814 
 H                     3.76921   2.07869   0.66756 
 H                     4.3743   -2.72094  -0.5087 
 H                     1.96996  -2.94007  -0.95828 
 H                    -0.29034  -2.03431  -0.8921 
 H                     2.00346   2.88117   0.31393 
 H                    -0.25021   3.80746   0.07109 
 H                    -2.61575   3.54883  -0.29716 
 H                    -4.63611   2.119    -0.49634 
 H                    -5.69412  -0.04541  -0.27886 
 H                    -5.59672  -2.46389   0.30545 
 H                    -3.3914   -3.48479   0.92616 
 H                    -1.3397   -2.16544   0.82056 
 
                    Distance matrix (angstroms):
                    1          2          3          4          5
     1  C    0.000000
     2  C    1.410970   0.000000
     3  C    2.426521   1.384385   0.000000
     4  C    2.840144   2.445129   1.418514   0.000000
     5  C    2.435672   2.805947   2.435794   1.427648   0.000000
     6  C    1.382003   2.412808   2.793560   2.462286   1.416946
     7  C    3.745519   4.234642   3.740240   2.458071   1.428956
     8  C    4.872455   5.074960   4.247008   2.829767   2.437133
     9  C    5.140153   4.938686   3.808825   2.495781   2.872903
    10  C    4.294300   3.789876   2.524035   1.454528   2.488183
    11  C    5.194980   4.351573   2.969365   2.507728   3.793245
    12  C    6.526277   5.720630   4.339147   3.760927   4.909683
    13  C    7.135984   6.557230   5.209665   4.297210   5.146034
    14  C    8.563097   7.965152   6.606374   5.725814   6.542704
    15  C    9.354440   8.910551   7.592437   6.554880   7.156202
    16  C    8.971427   8.725610   7.495833   6.297044   6.639960
    17  C   10.078550   9.944177   8.765170   7.511452   7.693924
    18  C   10.068748  10.105830   9.038149   7.716612   7.670278
    19  C    8.928985   9.071966   8.102963   6.758416   6.564226
    20  C    7.666302   7.734643   6.731875   5.394252   5.294619
    21  C    7.633259   7.477436   6.315842   5.048178   5.279714
    22  C    6.556178   6.240300   5.006043   3.819477   4.320897
    23  H    1.093928   2.176146   3.414899   3.934043   3.429116
    24  H    2.173934   1.094015   2.147532   3.431631   3.899932
    25  H    3.405288   2.132531   1.091025   2.179912   3.432950
    26  H    2.154521   3.411986   3.887917   3.444929   2.165270
    27  H    4.079080   4.859874   4.607291   3.442197   2.176515
    28  H    5.825878   6.128455   5.331849   3.914839   3.413899
    29  H    5.035981   3.961718   2.638939   2.738598   4.149462
    30  H    7.297220   6.353852   4.989227   4.642225   5.878897
    31  H    9.113961   8.380606   7.002370   6.296146   7.255962
    32  H   10.432731   9.963075   8.632106   7.626152   8.240847
    33  H   11.070278  10.877023   9.657754   8.443234   8.697815
    34  H   11.051316  11.140681  10.099889   8.768254   8.656405
    35  H    9.148935   9.428051   8.574127   7.228877   6.857079
    36  H    6.841025   7.017617   6.133572   4.798722   4.531004
                    6          7          8          9         10
     6  C    0.000000
     7  C    2.480997   0.000000
     8  C    3.730854   1.365910   0.000000
     9  C    4.288990   2.452890   1.437453   0.000000
    10  C    3.786483   2.828484   2.449135   1.426257   0.000000
    11  C    4.965174   4.241608   3.739731   2.451869   1.424031
    12  C    6.183550   5.058647   4.228046   2.814708   2.431355
    13  C    6.532862   4.894796   3.771038   2.458533   2.843256
    14  C    7.939582   6.175568   4.953532   3.773434   4.273171
    15  C    8.573063   6.535237   5.205069   4.290234   5.128745
    16  C    8.036979   5.804238   4.439624   3.840060   4.979653
    17  C    9.050922   6.702566   5.362005   5.024743   6.266165
    18  C    8.942121   6.541982   5.297638   5.285574   6.633802
    19  C    7.767585   5.402662   4.260320   4.469597   5.841961
    20  C    6.560165   4.229848   3.012093   3.094993   4.458185
    21  C    6.660679   4.423748   3.070254   2.571112   3.840915
    22  C    5.736384   3.780853   2.527591   1.448413   2.488576
    23  H    2.153224   4.631916   5.843850   6.206909   5.388228
    24  H    3.403015   5.328642   6.143402   5.910615   4.669587
    25  H    3.884143   4.631654   4.912013   4.180321   2.769177
    26  H    1.094432   2.695888   4.056199   4.905475   4.651716
    27  H    2.702601   1.094286   2.135003   3.442667   3.920147
    28  H    4.595779   2.116038   1.088515   2.184928   3.429808
    29  H    5.100499   4.888971   4.618787   3.444002   2.183675
    30  H    7.089782   6.118250   5.314505   3.907427   3.424002
    31  H    8.617717   7.034576   5.882215   4.622571   4.869612
    32  H    9.657271   7.599952   6.262050   5.379334   6.192450
    33  H   10.070702   7.734788   6.383600   5.965549   7.141666
    34  H    9.890082   7.477629   6.280945   6.356271   7.715382
    35  H    7.938184   5.641480   4.680700   5.126981   6.479278
    36  H    5.708744   3.464322   2.443940   2.821042   4.102687
                   11         12         13         14         15
    11  C    0.000000
    12  C    1.370058   0.000000
    13  C    2.433418   1.422321   0.000000
    14  C    3.731648   2.470521   1.432561   0.000000
    15  C    4.866469   3.722163   2.434432   1.363344   0.000000
    16  C    5.112207   4.250563   2.830485   2.425744   1.431680
    17  C    6.500830   5.663002   4.245185   3.710555   2.469159
    18  C    7.119956   6.489841   5.100579   4.853513   3.737452
    19  C    6.551216   6.177456   4.898674   5.054182   4.228101
    20  C    5.209426   4.951968   3.774178   4.235345   3.742790
    21  C    4.280465   3.764692   2.462795   2.835955   2.478976
    22  C    2.837470   2.458431   1.420887   2.476851   2.857100
    23  H    6.264377   7.604769   8.229762   9.656516  10.439737
    24  H    4.996313   6.351191   7.326897   8.702535   9.727679
    25  H    2.655807   3.969234   5.065063   6.382976   7.496630
    26  H    5.918891   7.069623   7.271213   8.643005   9.151029
    27  H    5.328338   6.114992   5.858787   7.071767   7.298896
    28  H    4.604662   4.855688   4.111643   5.067996   5.035886
    29  H    1.090413   2.124272   3.413877   4.594155   5.816132
    30  H    2.140774   1.094084   2.169425   2.673173   4.032786
    31  H    4.038439   2.671742   2.175134   1.094140   2.139969
    32  H    5.837276   4.610241   3.433011   2.141327   1.094101
    33  H    7.228700   6.251695   4.859197   4.029049   2.672930
    34  H    8.212681   7.562847   6.165826   5.820553   4.618674
    35  H    7.322010   7.081071   5.866918   6.115604   5.317686
    36  H    5.072599   5.101732   4.144495   4.892180   4.627775
                   16         17         18         19         20
    16  C    0.000000
    17  C    1.416993   0.000000
    18  C    2.438976   1.382024   0.000000
    19  C    2.804329   2.407395   1.409253   0.000000
    20  C    2.432317   2.787645   2.426308   1.385102   0.000000
    21  C    1.434015   2.468302   2.850976   2.452923   1.421298
    22  C    2.492599   3.791652   4.307925   3.806289   2.540834
    23  H   10.028121  11.105818  11.040008   9.860519   8.635379
    24  H    9.636727  10.889868  11.100817  10.089997   8.743409
    25  H    7.591807   8.924263   9.335295   8.510590   7.129700
    26  H    8.480710   9.376368   9.126392   7.892664   6.798441
    27  H    6.438268   7.176330   6.844031   5.644528   4.652032
    28  H    4.061520   4.759411   4.539946   3.500190   2.442924
    29  H    6.164243   7.560535   8.199936   7.620330   6.271921
    30  H    4.854585   6.238816   7.202793   7.038571   5.886141
    31  H    3.424820   4.599904   5.823940   6.115619   5.323907
    32  H    2.179043   2.682383   4.058170   4.842462   4.603768
    33  H    2.163237   1.094458   2.153419   3.406088   3.881599
    34  H    3.431857   2.153919   1.093895   2.176754   3.416014
    35  H    3.897058   3.398416   2.173449   1.094067   2.146508
    36  H    3.423727   3.873259   3.401183   2.130208   1.088925
                   21         22         23         24         25
    21  C    0.000000
    22  C    1.457673   0.000000
    23  H    8.674208   7.632020   0.000000
    24  H    8.430893   7.147759   2.504687   0.000000
    25  H    6.540854   5.154200   4.300550   2.446016   0.000000
    26  H    7.084636   6.331513   2.490544   4.316092   4.978565
    27  H    5.080185   4.661371   4.780277   5.937394   5.573917
    28  H    2.777919   2.756744   6.743780   7.205504   5.985750
    29  H    5.366207   3.927099   6.041920   4.399746   1.971517
    30  H    4.622719   3.440106   8.350165   6.847478   4.415891
    31  H    3.928999   3.452089  10.201902   9.018735   6.622664
    32  H    3.461377   3.950083  11.519194  10.757577   8.485607
    33  H    3.449763   4.653556  12.110556  11.796984   9.744850
    34  H    3.944713   5.401595  11.998548  12.145136  10.415699
    35  H    3.437000   4.685329  10.010871  10.460603   9.071570
    36  H    2.176830   2.787087   7.766777   8.041674   6.643562
                   26         27         28         29         30
    26  H    0.000000
    27  H    2.455810   0.000000
    28  H    4.730470   2.435927   0.000000
    29  H    6.138502   5.958732   5.556799   0.000000
    30  H    8.021356   7.177593   5.920776   2.448674   0.000000
    31  H    9.392316   7.973185   6.077251   4.707053   2.407964
    32  H   10.228031   8.333530   6.024311   6.732109   4.733808
    33  H   10.420388   8.220635   5.790739   8.256460   6.678567
    34  H   10.007512   7.686252   5.456772   9.291536   8.244391
    35  H    7.934006   5.708941   3.876403   8.366887   7.985926
    36  H    5.892818   3.836422   2.012840   6.074676   6.117530
                   31         32         33         34         35
    31  H    0.000000
    32  H    2.483124   0.000000
    33  H    4.732365   2.418964   0.000000
    34  H    6.738115   4.750644   2.489975   0.000000
    35  H    7.181220   5.913989   4.310908   2.508177   0.000000
    36  H    5.960748   5.563901   4.966316   4.298452   2.441580
                   36
    36  H    0.000000
 Framework group  C1[X(C22H14)]
 Deg. of freedom   102
                         Standard orientation:                         
 ---------------------------------------------------------------------
 Center     Atomic      Atomic             Coordinates (Angstroms)
 Number     Number       Type             X           Y           Z
 ---------------------------------------------------------------------
      1          6           0        5.338683   -0.884422    0.073666
      2          6           0        5.149051    0.474400    0.403026
      3          6           0        3.880024    1.027620    0.396793
      4          6           0        2.736516    0.253621    0.071988
      5          6           0        2.936769   -1.121989   -0.253241
      6          6           0        4.245397   -1.665329   -0.250129
      7          6           0        1.803880   -1.914868   -0.613548
      8          6           0        0.535566   -1.411412   -0.553366
      9          6           0        0.269895   -0.059200   -0.144448
     10          6           0        1.389185    0.801463    0.057193
     11          6           0        1.161004    2.201518    0.182265
     12          6           0       -0.099321    2.723919    0.056821
     13          6           0       -1.238068    1.881108   -0.069358
     14          6           0       -2.538654    2.459386   -0.231534
     15          6           0       -3.649531    1.675451   -0.332054
     16          6           0       -3.556911    0.259556   -0.141343
     17          6           0       -4.732406   -0.529499   -0.082410
     18          6           0       -4.680192   -1.868996    0.253763
     19          6           0       -3.437752   -2.447095    0.582606
     20          6           0       -2.271850   -1.704109    0.498036
     21          6           0       -2.275697   -0.347894    0.072885
     22          6           0       -1.074970    0.469783   -0.047408
     23          1           0        6.344475   -1.314593    0.077332
     24          1           0        6.009239    1.096219    0.668143
     25          1           0        3.769205    2.078687    0.667558
     26          1           0        4.374303   -2.720936   -0.508700
     27          1           0        1.969960   -2.940071   -0.958276
     28          1           0       -0.290341   -2.034313   -0.892095
     29          1           0        2.003463    2.881171    0.313929
     30          1           0       -0.250208    3.807455    0.071090
     31          1           0       -2.615752    3.548831   -0.297160
     32          1           0       -4.636105    2.119004   -0.496340
     33          1           0       -5.694124   -0.045410   -0.278863
     34          1           0       -5.596724   -2.463894    0.305453
     35          1           0       -3.391401   -3.484786    0.926162
     36          1           0       -1.339697   -2.165441    0.820559
 ---------------------------------------------------------------------
 Rotational constants (GHZ):           0.6989771           0.1800675           0.1456332
   378 basis functions,   824 primitive gaussians,   400 cartesian basis functions
    73 alpha electrons       73 beta electrons
       nuclear repulsion energy      1554.1898515174 Hartrees.
 NAtoms=   36 NActive=   36 NUniq=   36 SFac= 1.00D+00 NAtFMM=   60 NAOKFM=F Big=F
 ExpMin= 1.22D-01 ExpMax= 6.67D+03 ExpMxC= 2.28D+02 IAcc=3 IRadAn=         5 AccDes= 0.00D+00
 Harris functional with IExCor=  205 and IRadAn=       5 diagonalized for initial guess.
 HarFok:  IExCor=  205 AccDes= 0.00D+00 IRadAn=         5 IDoV= 1 UseB2=F ITyADJ=14
 ICtDFT=  3500011 ScaDFX=  1.000000  1.000000  1.000000  1.000000
 FoFCou: FMM=F IPFlag=           0 FMFlag=      100000 FMFlg1=           0
         NFxFlg=           0 DoJE=T BraDBF=F KetDBF=T FulRan=T
         wScrn=  0.000000 ICntrl=       500 IOpCl=  0 I1Cent=   200000004 NGrid=           0
         NMat0=    1 NMatS0=      1 NMatT0=    0 NMatD0=    1 NMtDS0=    0 NMtDT0=    0
 Petite list used in FoFCou.
 Integral accuracy reduced to 1.0D-05 until final iterations.
 Initial convergence to 1.0D-05 achieved.  Increase integral accuracy.
 SCF Done:  E(RHF) =  -841.357136557     A.U. after   16 cycles
            NFock= 16  Conv=0.72D-08     -V/T= 2.0013
 ExpMin= 1.22D-01 ExpMax= 6.67D+03 ExpMxC= 2.28D+02 IAcc=3 IRadAn=         5 AccDes= 0.00D+00
 HarFok:  IExCor=  205 AccDes= 0.00D+00 IRadAn=         5 IDoV=-2 UseB2=F ITyADJ=14
 ICtDFT= 12500011 ScaDFX=  1.000000  1.000000  1.000000  1.000000
 GSVD:  LWork=        -660 too small for GESVD, short by        2750 words or        2750 for optimal perf.
 NROrb=    356 NOA=    51 NOB=    51 NVA=   305 NVB=   305

 **** Warning!!: The largest alpha MO coefficient is  0.12699140D+02

 Estimated scratch disk usage=  3175822485 words.
 Actual    scratch disk usage=  2392648853 words.
 (rs|ai) integrals will be sorted in core.
 ANorm=    0.1454224614D+01
 E2 =    -0.2850950900D+01 EUMP2 =    -0.84420808745699D+03

 **********************************************************************

            Population analysis using the SCF Density.

 **********************************************************************

 Orbital symmetries:
       Occupied  (A) (A) (A) (A) (A) (A) (A) (A) (A) (A) (A) (A)
                 (A) (A) (A) (A) (A) (A) (A) (A) (A) (A) (A) (A)
                 (A) (A) (A) (A) (A) (A) (A) (A) (A) (A) (A) (A)
                 (A) (A) (A) (A) (A) (A) (A) (A) (A) (A) (A) (A)
                 (A) (A) (A) (A) (A) (A) (A) (A) (A) (A) (A) (A)
                 (A) (A) (A) (A) (A) (A) (A) (A) (A) (A) (A) (A)
                 (A)
       Virtual   (A) (A) (A) (A) (A) (A) (A) (A) (A) (A) (A) (A)
                 (A) (A) (A) (A) (A) (A) (A) (A) (A) (A) (A) (A)
                 (A) (A) (A) (A) (A) (A) (A) (A) (A) (A) (A) (A)
                 (A) (A) (A) (A) (A) (A) (A) (A) (A) (A) (A) (A)
                 (A) (A) (A) (A) (A) (A) (A) (A) (A) (A) (A) (A)
                 (A) (A) (A) (A) (A) (A) (A) (A) (A) (A) (A) (A)
                 (A) (A) (A) (A) (A) (A) (A) (A) (A) (A) (A) (A)
                 (A) (A) (A) (A) (A) (A) (A) (A) (A) (A) (A) (A)
                 (A) (A) (A) (A) (A) (A) (A) (A) (A) (A) (A) (A)
                 (A) (A) (A) (A) (A) (A) (A) (A) (A) (A) (A) (A)
                 (A) (A) (A) (A) (A) (A) (A) (A) (A) (A) (A) (A)
                 (A) (A) (A) (A) (A) (A) (A) (A) (A) (A) (A) (A)
                 (A) (A) (A) (A) (A) (A) (A) (A) (A) (A) (A) (A)
                 (A) (A) (A) (A) (A) (A) (A) (A) (A) (A) (A) (A)
                 (A) (A) (A) (A) (A) (A) (A) (A) (A) (A) (A) (A)
                 (A) (A) (A) (A) (A) (A) (A) (A) (A) (A) (A) (A)
                 (A) (A) (A) (A) (A) (A) (A) (A) (A) (A) (A) (A)
                 (A) (A) (A) (A) (A) (A) (A) (A) (A) (A) (A) (A)
                 (A) (A) (A) (A) (A) (A) (A) (A) (A) (A) (A) (A)
                 (A) (A) (A) (A) (A) (A) (A) (A) (A) (A) (A) (A)
                 (A) (A) (A) (A) (A) (A) (A) (A) (A) (A) (A) (A)
                 (A) (A) (A) (A) (A) (A) (A) (A) (A) (A) (A) (A)
                 (A) (A) (A) (A) (A) (A) (A) (A) (A) (A) (A) (A)
                 (A) (A) (A) (A) (A) (A) (A) (A) (A) (A) (A) (A)
                 (A) (A) (A) (A) (A) (A) (A) (A) (A) (A) (A) (A)
                 (A) (A) (A) (A) (A)
 The electronic state is 1-A.
 Alpha  occ. eigenvalues --  -11.25911 -11.25750 -11.25658 -11.25575 -11.25378
 Alpha  occ. eigenvalues --  -11.25180 -11.25173 -11.24941 -11.24609 -11.24548
 Alpha  occ. eigenvalues --  -11.24525 -11.24493 -11.24477 -11.24468 -11.24412
 Alpha  occ. eigenvalues --  -11.24397 -11.24392 -11.24377 -11.24336 -11.24326
 Alpha  occ. eigenvalues --  -11.24241 -11.24220  -1.19562  -1.17248  -1.14056
 Alpha  occ. eigenvalues --   -1.10800  -1.08386  -1.05770  -1.04121  -1.01198
 Alpha  occ. eigenvalues --   -1.00334  -0.97655  -0.97212  -0.87140  -0.86442
 Alpha  occ. eigenvalues --   -0.85127  -0.83095  -0.81864  -0.79743  -0.75098
 Alpha  occ. eigenvalues --   -0.72371  -0.71532  -0.69072  -0.67757  -0.66741
 Alpha  occ. eigenvalues --   -0.65200  -0.63857  -0.61935  -0.60464  -0.59754
 Alpha  occ. eigenvalues --   -0.59404  -0.58889  -0.57942  -0.57211  -0.55873
 Alpha  occ. eigenvalues --   -0.55582  -0.54820  -0.52843  -0.52352  -0.51473
 Alpha  occ. eigenvalues --   -0.50110  -0.49105  -0.48522  -0.47135  -0.46249
 Alpha  occ. eigenvalues --   -0.43958  -0.41758  -0.38295  -0.36427  -0.32836
 Alpha  occ. eigenvalues --   -0.31459  -0.27224  -0.26959
 Alpha virt. eigenvalues --    0.06815   0.07032   0.10845   0.12227   0.15646
 Alpha virt. eigenvalues --    0.17708   0.18313   0.18726   0.18787   0.20272
 Alpha virt. eigenvalues --    0.20670   0.22505   0.22803   0.22967   0.24163
 Alpha virt. eigenvalues --    0.24892   0.25662   0.26389   0.27936   0.29146
 Alpha virt. eigenvalues --    0.29888   0.31714   0.33250   0.37774   0.38108
 Alpha virt. eigenvalues --    0.39230   0.40278   0.42089   0.42190   0.43155
 Alpha virt. eigenvalues --    0.43722   0.45339   0.46059   0.46672   0.47024
 Alpha virt. eigenvalues --    0.48229   0.49529   0.49821   0.51227   0.53174
 Alpha virt. eigenvalues --    0.55135   0.58562   0.59631   0.62056   0.62710
 Alpha virt. eigenvalues --    0.63490   0.65097   0.66012   0.66179   0.66509
 Alpha virt. eigenvalues --    0.67102   0.67332   0.67714   0.68077   0.68739
 Alpha virt. eigenvalues --    0.69072   0.69735   0.70476   0.70751   0.71109
 Alpha virt. eigenvalues --    0.71501   0.71996   0.72625   0.72891   0.73663
 Alpha virt. eigenvalues --    0.73803   0.74009   0.74512   0.74893   0.75087
 Alpha virt. eigenvalues --    0.75863   0.76096   0.76367   0.76970   0.77400
 Alpha virt. eigenvalues --    0.77463   0.77653   0.79331   0.79937   0.80768
 Alpha virt. eigenvalues --    0.81199   0.81737   0.83154   0.84011   0.85876
 Alpha virt. eigenvalues --    0.86639   0.87410   0.87559   0.88657   0.89037
 Alpha virt. eigenvalues --    0.90061   0.90940   0.91233   0.91965   0.92243
 Alpha virt. eigenvalues --    0.92815   0.93755   0.94173   0.95578   0.95885
 Alpha virt. eigenvalues --    0.97397   0.98169   0.98311   0.99077   1.00987
 Alpha virt. eigenvalues --    1.02077   1.04108   1.04213   1.07742   1.09400
 Alpha virt. eigenvalues --    1.09855   1.10138   1.11109   1.11729   1.12732
 Alpha virt. eigenvalues --    1.12856   1.13231   1.13879   1.14394   1.14543
 Alpha virt. eigenvalues --    1.14939   1.15865   1.16530   1.17134   1.17396
 Alpha virt. eigenvalues --    1.17822   1.18306   1.18924   1.20524   1.20889
 Alpha virt. eigenvalues --    1.21289   1.22213   1.23190   1.24064   1.24352
 Alpha virt. eigenvalues --    1.25529   1.25806   1.26292   1.27397   1.27673
 Alpha virt. eigenvalues --    1.28785   1.30026   1.30302   1.30745   1.31764
 Alpha virt. eigenvalues --    1.32158   1.33072   1.33490   1.36429   1.38162
 Alpha virt. eigenvalues --    1.38320   1.39328   1.42788   1.43524   1.44307
 Alpha virt. eigenvalues --    1.51859   1.54146   1.54898   1.55972   1.58050
 Alpha virt. eigenvalues --    1.58239   1.59728   1.60297   1.61539   1.62472
 Alpha virt. eigenvalues --    1.64024   1.64987   1.66126   1.67193   1.67841
 Alpha virt. eigenvalues --    1.69039   1.70612   1.71038   1.72098   1.73267
 Alpha virt. eigenvalues --    1.74140   1.74513   1.75065   1.75481   1.75882
 Alpha virt. eigenvalues --    1.77786   1.79231   1.79783   1.80452   1.81541
 Alpha virt. eigenvalues --    1.83759   1.84238   1.85140   1.86190   1.86310
 Alpha virt. eigenvalues --    1.87112   1.88467   1.89198   1.89612   1.90505
 Alpha virt. eigenvalues --    1.91056   1.91266   1.91576   1.92239   1.92472
 Alpha virt. eigenvalues --    1.93360   1.94113   1.94578   1.95792   1.96110
 Alpha virt. eigenvalues --    1.96711   1.97382   1.98664   1.99033   1.99743
 Alpha virt. eigenvalues --    2.00016   2.01578   2.01829   2.02295   2.04403
 Alpha virt. eigenvalues --    2.04745   2.05834   2.06499   2.07276   2.07947
 Alpha virt. eigenvalues --    2.08197   2.10218   2.10395   2.11216   2.11927
 Alpha virt. eigenvalues --    2.12203   2.12783   2.14071   2.15041   2.16473
 Alpha virt. eigenvalues --    2.16733   2.17027   2.17784   2.18390   2.18956
 Alpha virt. eigenvalues --    2.19338   2.20166   2.21703   2.22910   2.24386
 Alpha virt. eigenvalues --    2.25495   2.26264   2.26475   2.27402   2.30209
 Alpha virt. eigenvalues --    2.31585   2.32765   2.33432   2.34402   2.35323
 Alpha virt. eigenvalues --    2.35843   2.36281   2.37041   2.39676   2.41164
 Alpha virt. eigenvalues --    2.42092   2.43729   2.45540   2.46141   2.47324
 Alpha virt. eigenvalues --    2.49803   2.50794   2.52628   2.55623   2.57019
 Alpha virt. eigenvalues --    2.58472   2.60141   2.60621   2.62870   2.67103
 Alpha virt. eigenvalues --    2.68464   2.69941   2.71583   2.72109   2.72825
 Alpha virt. eigenvalues --    2.76064   2.79004   2.79688   2.81471   2.82878
 Alpha virt. eigenvalues --    2.83738   2.85440   2.93097   2.94679   2.96992
 Alpha virt. eigenvalues --    2.99921   3.01438   3.02151   3.03000   3.04197
 Alpha virt. eigenvalues --    3.05443   3.07765   3.08512   3.10455   3.12051
 Alpha virt. eigenvalues --    3.16869   3.20871   3.22151   3.29210   3.29878
 Alpha virt. eigenvalues --    3.67759   3.68672   3.76866   3.88896   3.95166
          Condensed to atoms (all electrons):
 Mulliken charges:
               1
     1  C   -0.012828
     2  C    0.001786
     3  C   -0.026200
     4  C   -0.029299
     5  C   -0.103099
     6  C    0.026852
     7  C    0.047013
     8  C   -0.026876
     9  C   -0.081080
    10  C   -0.032902
    11  C   -0.017955
    12  C    0.055074
    13  C   -0.093542
    14  C    0.034190
    15  C    0.026065
    16  C   -0.089849
    17  C    0.027027
    18  C   -0.017226
    19  C   -0.003998
    20  C   -0.034962
    21  C   -0.085079
    22  C    0.071117
    23  H    0.029469
    24  H    0.027567
    25  H    0.025422
    26  H    0.018392
    27  H    0.018420
    28  H    0.043847
    29  H    0.024199
    30  H    0.017508
    31  H    0.019660
    32  H    0.019635
    33  H    0.019377
    34  H    0.029775
    35  H    0.029265
    36  H    0.043238
 Sum of Mulliken charges =  -0.00000
 Mulliken charges with hydrogens summed into heavy atoms:
               1
     1  C    0.016641
     2  C    0.029352
     3  C   -0.000778
     4  C   -0.029299
     5  C   -0.103099
     6  C    0.045244
     7  C    0.065432
     8  C    0.016971
     9  C   -0.081080
    10  C   -0.032902
    11  C    0.006243
    12  C    0.072583
    13  C   -0.093542
    14  C    0.053850
    15  C    0.045700
    16  C   -0.089849
    17  C    0.046405
    18  C    0.012548
    19  C    0.025266
    20  C    0.008276
    21  C   -0.085079
    22  C    0.071117
 Electronic spatial extent (au):  <R**2>=           7079.7109
 Charge=             -0.0000 electrons
 Dipole moment (field-independent basis, Debye):
    X=             -0.0445    Y=              0.0699    Z=              0.0384  Tot=              0.0913
 Unable to Open any file for archive entry.
 1\1\GINC-NODE01\SP\RMP2-FC\CC-pVDZ\C22H14\XUHJ\11-Oct-2024\0\\#T MP2/c
 c-pVDZ symm=veryloose\\c1ccc2c(c1)ccc1c2ccc2ccc3ccccc3c21\\0,1\C,0,5.3
 38683,-0.884422,0.073666\C,0,5.149051,0.4744,0.403026\C,0,3.880024,1.0
 2762,0.396793\C,0,2.736516,0.253621,0.071988\C,0,2.936769,-1.121989,-0
 .253241\C,0,4.245397,-1.665329,-0.250129\C,0,1.80388,-1.914868,-0.6135
 48\C,0,0.535566,-1.411412,-0.553366\C,0,0.269895,-0.0592,-0.144448\C,0
 ,1.389185,0.801463,0.057193\C,0,1.161004,2.201518,0.182265\C,0,-0.0993
 21,2.723919,0.056821\C,0,-1.238068,1.881108,-0.069358\C,0,-2.538654,2.
 459386,-0.231534\C,0,-3.649531,1.675451,-0.332054\C,0,-3.556911,0.2595
 56,-0.141343\C,0,-4.732406,-0.529499,-0.08241\C,0,-4.680192,-1.868996,
 0.253763\C,0,-3.437752,-2.447095,0.582606\C,0,-2.27185,-1.704109,0.498
 036\C,0,-2.275697,-0.347894,0.072885\C,0,-1.07497,0.469783,-0.047408\H
 ,0,6.344475,-1.314593,0.077332\H,0,6.009239,1.096219,0.668143\H,0,3.76
 9205,2.078687,0.667558\H,0,4.374303,-2.720936,-0.5087\H,0,1.96996,-2.9
 40071,-0.958276\H,0,-0.290341,-2.034313,-0.892095\H,0,2.003463,2.88117
 1,0.313929\H,0,-0.250208,3.807455,0.07109\H,0,-2.615752,3.548831,-0.29
 716\H,0,-4.636105,2.119004,-0.49634\H,0,-5.694124,-0.04541,-0.278863\H
 ,0,-5.596724,-2.463894,0.305453\H,0,-3.391401,-3.484786,0.926162\H,0,-
 1.339697,-2.165441,0.820559\\Version=ES64L-G16RevC.01\State=1-A\HF=-84
 1.3571366\MP2=-844.2080875\RMSD=7.166e-09\PG=C01 [X(C22H14)]\\@
 The archive entry for this job was punched.


 MORNING PEOPLE ARE USUALLY ADMIRED AS EARLY BIRDS.
 RECALL BEN FRANKLIN'S APHORISM THAT THE EARLY BIRD GETS THE WORM.
 I IDENTIFY WITH THE WORM. --  CRAIG JAGGER, MINNEAPOLIS, KS.
 Job cpu time:       0 days  0 hours 16 minutes  2.0 seconds.
 Elapsed time:       0 days  0 hours  2 minutes  0.2 seconds.
 File lengths (MBytes):  RWF=  18337 Int=      0 D2E=      0 Chk=     10 Scr=      1
 Normal termination of Gaussian 16 at Fri Oct 11 16:03:33 2024.
