 Entering Gaussian System, Link 0=g16
 Initial command:
 /opt/g16/l1.exe "/tmp/Gau-1096662.inp" -scrdir="/tmp/"
 Entering Link 1 = /opt/g16/l1.exe PID=   1096664.
  
 Copyright (c) 1988-2019, Gaussian, Inc.  All Rights Reserved.
  
 This is part of the Gaussian(R) 16 program.  It is based on
 the Gaussian(R) 09 system (copyright 2009, Gaussian, Inc.),
 the Gaussian(R) 03 system (copyright 2003, Gaussian, Inc.),
 the Gaussian(R) 98 system (copyright 1998, Gaussian, Inc.),
 the Gaussian(R) 94 system (copyright 1995, Gaussian, Inc.),
 the Gaussian 92(TM) system (copyright 1992, Gaussian, Inc.),
 the Gaussian 90(TM) system (copyright 1990, Gaussian, Inc.),
 the Gaussian 88(TM) system (copyright 1988, Gaussian, Inc.),
 the Gaussian 86(TM) system (copyright 1986, Carnegie Mellon
 University), and the Gaussian 82(TM) system (copyright 1983,
 Carnegie Mellon University). Gaussian is a federally registered
 trademark of Gaussian, Inc.
  
 This software contains proprietary and confidential information,
 including trade secrets, belonging to Gaussian, Inc.
  
 This software is provided under written license and may be
 used, copied, transmitted, or stored only in accord with that
 written license.
  
 The following legend is applicable only to US Government
 contracts under FAR:
  
                    RESTRICTED RIGHTS LEGEND
  
 Use, reproduction and disclosure by the US Government is
 subject to restrictions as set forth in subparagraphs (a)
 and (c) of the Commercial Computer Software - Restricted
 Rights clause in FAR 52.227-19.
  
 Gaussian, Inc.
 340 Quinnipiac St., Bldg. 40, Wallingford CT 06492
  
  
 ---------------------------------------------------------------
 Warning -- This program may not be used in any manner that
 competes with the business of Gaussian, Inc. or will provide
 assistance to any competitor of Gaussian, Inc.  The licensee
 of this program is prohibited from giving any competitor of
 Gaussian, Inc. access to this program.  By using this program,
 the user acknowledges that Gaussian, Inc. is engaged in the
 business of creating and licensing software in the field of
 computational chemistry and represents and warrants to the
 licensee that it is not a competitor of Gaussian, Inc. and that
 it will not use this program in any manner prohibited above.
 ---------------------------------------------------------------
  

 Cite this work as:
 Gaussian 16, Revision C.01,
 M. J. Frisch, G. W. Trucks, H. B. Schlegel, G. E. Scuseria, 
 M. A. Robb, J. R. Cheeseman, G. Scalmani, V. Barone, 
 G. A. Petersson, H. Nakatsuji, X. Li, M. Caricato, A. V. Marenich, 
 J. Bloino, B. G. Janesko, R. Gomperts, B. Mennucci, H. P. Hratchian, 
 J. V. Ortiz, A. F. Izmaylov, J. L. Sonnenberg, D. Williams-Young, 
 F. Ding, F. Lipparini, F. Egidi, J. Goings, B. Peng, A. Petrone, 
 T. Henderson, D. Ranasinghe, V. G. Zakrzewski, J. Gao, N. Rega, 
 G. Zheng, W. Liang, M. Hada, M. Ehara, K. Toyota, R. Fukuda, 
 J. Hasegawa, M. Ishida, T. Nakajima, Y. Honda, O. Kitao, H. Nakai, 
 T. Vreven, K. Throssell, J. A. Montgomery, Jr., J. E. Peralta, 
 F. Ogliaro, M. J. Bearpark, J. J. Heyd, E. N. Brothers, K. N. Kudin, 
 V. N. Staroverov, T. A. Keith, R. Kobayashi, J. Normand, 
 K. Raghavachari, A. P. Rendell, J. C. Burant, S. S. Iyengar, 
 J. Tomasi, M. Cossi, J. M. Millam, M. Klene, C. Adamo, R. Cammi, 
 J. W. Ochterski, R. L. Martin, K. Morokuma, O. Farkas, 
 J. B. Foresman, and D. J. Fox, Gaussian, Inc., Wallingford CT, 2019.
 
 ******************************************
 Gaussian 16:  ES64L-G16RevC.01  3-Jul-2019
                 8-Oct-2024 
 ******************************************
 %nprocshared=8
 Will use up to    8 processors via shared memory.
 %mem=10400MB
 ----------------------------------------------------------------------
 #N opt freq B3LYP/def2SVPP symm=veryloose em=gd3bj scale=0.961 press=0
 .987
 ----------------------------------------------------------------------
 1/18=20,19=15,26=3,38=1,113=-987000,114=961000/1,3;
 2/9=110,12=2,17=2,18=2,40=1/2;
 3/5=43,7=202,11=2,25=1,30=1,71=1,74=-5,124=41/1,2,3;
 4//1;
 5/5=2,38=5/2;
 6/7=2,8=2,9=2,10=2,28=1/1;
 7//1,2,3,16;
 1/18=20,19=15,26=3/3(2);
 2/9=110/2;
 99//99;
 2/9=110/2;
 3/5=43,7=202,11=2,25=1,30=1,71=1,74=-5,124=41/1,2,3;
 4/5=5,16=3,69=1/1;
 5/5=2,38=5/2;
 7//1,2,3,16;
 1/18=20,19=15,26=3/3(-5);
 2/9=110/2;
 6/7=2,8=2,9=2,10=2,19=2,28=1/1;
 99/9=1/99;
 ------------------------------------------
 c1ccc2cc3cc4c(ccc5c6ccccc6ccc45)cc3cc2c1_2
 ------------------------------------------
 Symbolic Z-matrix:
 Charge =  0 Multiplicity = 1
 C                     7.0634   -0.4885   -0.6165 
 C                     6.9386    0.5767    0.2701 
 C                     5.672     1.0056    0.6699 
 C                     4.5137    0.3738    0.1875 
 C                     3.2312    0.7926    0.5795 
 C                     2.0717    0.1601    0.0965 
 C                     0.7831    0.5763    0.4866 
 C                    -0.4113   -0.038     0.0199 
 C                    -0.2425   -1.1147   -0.8778 
 C                    -1.3603   -1.7714   -1.3823 
 C                    -2.6462   -1.3803   -1.0131 
 C                    -2.8886   -0.3149   -0.1222 
 C                    -4.2259    0.0859    0.2568 
 C                    -5.4187   -0.5293   -0.2106 
 C                    -6.6913   -0.1045    0.186 
 C                    -6.821     0.9553    1.0683 
 C                    -5.6784    1.5858    1.5502 
 C                    -4.3959    1.1646    1.1562 
 C                    -3.2787    1.8214    1.6608 
 C                    -1.9927    1.4298    1.2912 
 C                    -1.749     0.364     0.3999 
 C                     1.0396   -1.5369   -1.2726 
 C                     2.2001   -0.9131   -0.7969 
 C                     3.4812   -1.3361   -1.1923 
 C                     4.6404   -0.706    -0.7113 
 C                     5.9219   -1.1262   -1.1045 
 H                     8.0487   -0.8242   -0.9292 
 H                     7.8261    1.0748    0.6513 
 H                     5.595     1.8399    1.3635 
 H                     3.134     1.6259    1.273 
 H                     0.7249    1.4109    1.1798 
 H                    -1.2503   -2.6033   -2.0751 
 H                    -3.4648   -1.9438   -1.451 
 H                    -5.3812   -1.3645   -0.9037 
 H                    -7.5752   -0.6065   -0.1986 
 H                    -7.8052    1.2919    1.3817 
 H                    -5.7965    2.4169    2.2427 
 H                    -3.3899    2.6531    2.3535 
 H                    -1.1754    1.9943    1.7299 
 H                     1.1366   -2.3707   -1.9666 
 H                     3.5773   -2.1695   -1.8858 
 H                     6.0399   -1.957    -1.7966 
 

 GradGradGradGradGradGradGradGradGradGradGradGradGradGradGradGradGradGrad
 Berny optimization.
 Initialization pass.
                           ----------------------------
                           !    Initial Parameters    !
                           ! (Angstroms and Degrees)  !
 --------------------------                            --------------------------
 ! Name  Definition              Value          Derivative Info.                !
 --------------------------------------------------------------------------------
 ! R1    R(1,2)                  1.3915         estimate D2E/DX2                !
 ! R2    R(1,26)                 1.3956         estimate D2E/DX2                !
 ! R3    R(1,27)                 1.0869         estimate D2E/DX2                !
 ! R4    R(2,3)                  1.3957         estimate D2E/DX2                !
 ! R5    R(2,28)                 1.0868         estimate D2E/DX2                !
 ! R6    R(3,4)                  1.4048         estimate D2E/DX2                !
 ! R7    R(3,29)                 1.0877         estimate D2E/DX2                !
 ! R8    R(4,5)                  1.4049         estimate D2E/DX2                !
 ! R9    R(4,25)                 1.4106         estimate D2E/DX2                !
 ! R10   R(5,6)                  1.4063         estimate D2E/DX2                !
 ! R11   R(5,30)                 1.0885         estimate D2E/DX2                !
 ! R12   R(6,7)                  1.4092         estimate D2E/DX2                !
 ! R13   R(6,23)                 1.4023         estimate D2E/DX2                !
 ! R14   R(7,8)                  1.4219         estimate D2E/DX2                !
 ! R15   R(7,31)                 1.0865         estimate D2E/DX2                !
 ! R16   R(8,9)                  1.412          estimate D2E/DX2                !
 ! R17   R(8,21)                 1.4476         estimate D2E/DX2                !
 ! R18   R(9,10)                 1.3911         estimate D2E/DX2                !
 ! R19   R(9,22)                 1.4064         estimate D2E/DX2                !
 ! R20   R(10,11)                1.3938         estimate D2E/DX2                !
 ! R21   R(10,32)                1.0882         estimate D2E/DX2                !
 ! R22   R(11,12)                1.4098         estimate D2E/DX2                !
 ! R23   R(11,33)                1.086          estimate D2E/DX2                !
 ! R24   R(12,13)                1.4466         estimate D2E/DX2                !
 ! R25   R(12,21)                1.4255         estimate D2E/DX2                !
 ! R26   R(13,14)                1.4212         estimate D2E/DX2                !
 ! R27   R(13,18)                1.4147         estimate D2E/DX2                !
 ! R28   R(14,15)                1.399          estimate D2E/DX2                !
 ! R29   R(14,34)                1.086          estimate D2E/DX2                !
 ! R30   R(15,16)                1.3851         estimate D2E/DX2                !
 ! R31   R(15,35)                1.0868         estimate D2E/DX2                !
 ! R32   R(16,17)                1.3911         estimate D2E/DX2                !
 ! R33   R(16,36)                1.0864         estimate D2E/DX2                !
 ! R34   R(17,18)                1.4062         estimate D2E/DX2                !
 ! R35   R(17,37)                1.0882         estimate D2E/DX2                !
 ! R36   R(18,19)                1.3907         estimate D2E/DX2                !
 ! R37   R(19,20)                1.3942         estimate D2E/DX2                !
 ! R38   R(19,38)                1.0881         estimate D2E/DX2                !
 ! R39   R(20,21)                1.4106         estimate D2E/DX2                !
 ! R40   R(20,39)                1.0859         estimate D2E/DX2                !
 ! R41   R(22,23)                1.4008         estimate D2E/DX2                !
 ! R42   R(22,40)                1.0892         estimate D2E/DX2                !
 ! R43   R(23,24)                1.4059         estimate D2E/DX2                !
 ! R44   R(24,25)                1.4043         estimate D2E/DX2                !
 ! R45   R(24,41)                1.0885         estimate D2E/DX2                !
 ! R46   R(25,26)                1.4048         estimate D2E/DX2                !
 ! R47   R(26,42)                1.0877         estimate D2E/DX2                !
 ! A1    A(2,1,26)             119.9474         estimate D2E/DX2                !
 ! A2    A(2,1,27)             120.07           estimate D2E/DX2                !
 ! A3    A(26,1,27)            119.9826         estimate D2E/DX2                !
 ! A4    A(1,2,3)              119.9426         estimate D2E/DX2                !
 ! A5    A(1,2,28)             120.0728         estimate D2E/DX2                !
 ! A6    A(3,2,28)             119.9846         estimate D2E/DX2                !
 ! A7    A(2,3,4)              120.775          estimate D2E/DX2                !
 ! A8    A(2,3,29)             118.856          estimate D2E/DX2                !
 ! A9    A(4,3,29)             120.369          estimate D2E/DX2                !
 ! A10   A(3,4,5)              121.5192         estimate D2E/DX2                !
 ! A11   A(3,4,25)             119.2748         estimate D2E/DX2                !
 ! A12   A(5,4,25)             119.2059         estimate D2E/DX2                !
 ! A13   A(4,5,6)              121.5159         estimate D2E/DX2                !
 ! A14   A(4,5,30)             119.176          estimate D2E/DX2                !
 ! A15   A(6,5,30)             119.3082         estimate D2E/DX2                !
 ! A16   A(5,6,7)              121.7363         estimate D2E/DX2                !
 ! A17   A(5,6,23)             119.1777         estimate D2E/DX2                !
 ! A18   A(7,6,23)             119.086          estimate D2E/DX2                !
 ! A19   A(6,7,8)              123.3434         estimate D2E/DX2                !
 ! A20   A(6,7,31)             116.9021         estimate D2E/DX2                !
 ! A21   A(8,7,31)             119.7545         estimate D2E/DX2                !
 ! A22   A(7,8,9)              115.9575         estimate D2E/DX2                !
 ! A23   A(7,8,21)             124.7583         estimate D2E/DX2                !
 ! A24   A(9,8,21)             119.2842         estimate D2E/DX2                !
 ! A25   A(8,9,10)             119.6355         estimate D2E/DX2                !
 ! A26   A(8,9,22)             121.09           estimate D2E/DX2                !
 ! A27   A(10,9,22)            119.2744         estimate D2E/DX2                !
 ! A28   A(9,10,11)            120.8488         estimate D2E/DX2                !
 ! A29   A(9,10,32)            120.7004         estimate D2E/DX2                !
 ! A30   A(11,10,32)           118.4508         estimate D2E/DX2                !
 ! A31   A(10,11,12)           122.5513         estimate D2E/DX2                !
 ! A32   A(10,11,33)           116.2956         estimate D2E/DX2                !
 ! A33   A(12,11,33)           121.1531         estimate D2E/DX2                !
 ! A34   A(11,12,13)           122.2687         estimate D2E/DX2                !
 ! A35   A(11,12,21)           116.9936         estimate D2E/DX2                !
 ! A36   A(13,12,21)           120.7378         estimate D2E/DX2                !
 ! A37   A(12,13,14)           124.7359         estimate D2E/DX2                !
 ! A38   A(12,13,18)           119.2686         estimate D2E/DX2                !
 ! A39   A(14,13,18)           115.9955         estimate D2E/DX2                !
 ! A40   A(13,14,15)           122.6016         estimate D2E/DX2                !
 ! A41   A(13,14,34)           120.92           estimate D2E/DX2                !
 ! A42   A(15,14,34)           116.4784         estimate D2E/DX2                !
 ! A43   A(14,15,16)           119.8738         estimate D2E/DX2                !
 ! A44   A(14,15,35)           119.9487         estimate D2E/DX2                !
 ! A45   A(16,15,35)           120.1775         estimate D2E/DX2                !
 ! A46   A(15,16,17)           119.3757         estimate D2E/DX2                !
 ! A47   A(15,16,36)           120.3765         estimate D2E/DX2                !
 ! A48   A(17,16,36)           120.2478         estimate D2E/DX2                !
 ! A49   A(16,17,18)           121.0821         estimate D2E/DX2                !
 ! A50   A(16,17,37)           118.5182         estimate D2E/DX2                !
 ! A51   A(18,17,37)           120.3997         estimate D2E/DX2                !
 ! A52   A(13,18,17)           121.0713         estimate D2E/DX2                !
 ! A53   A(13,18,19)           119.6193         estimate D2E/DX2                !
 ! A54   A(17,18,19)           119.3093         estimate D2E/DX2                !
 ! A55   A(18,19,20)           120.8067         estimate D2E/DX2                !
 ! A56   A(18,19,38)           120.6557         estimate D2E/DX2                !
 ! A57   A(20,19,38)           118.5376         estimate D2E/DX2                !
 ! A58   A(19,20,21)           122.6221         estimate D2E/DX2                !
 ! A59   A(19,20,39)           116.177          estimate D2E/DX2                !
 ! A60   A(21,20,39)           121.201          estimate D2E/DX2                !
 ! A61   A(8,21,12)            120.6866         estimate D2E/DX2                !
 ! A62   A(8,21,20)            122.3679         estimate D2E/DX2                !
 ! A63   A(12,21,20)           116.9454         estimate D2E/DX2                !
 ! A64   A(9,22,23)            121.7517         estimate D2E/DX2                !
 ! A65   A(9,22,40)            119.3328         estimate D2E/DX2                !
 ! A66   A(23,22,40)           118.9156         estimate D2E/DX2                !
 ! A67   A(6,23,22)            118.7714         estimate D2E/DX2                !
 ! A68   A(6,23,24)            119.5308         estimate D2E/DX2                !
 ! A69   A(22,23,24)           121.6978         estimate D2E/DX2                !
 ! A70   A(23,24,25)           121.3897         estimate D2E/DX2                !
 ! A71   A(23,24,41)           119.3422         estimate D2E/DX2                !
 ! A72   A(25,24,41)           119.2681         estimate D2E/DX2                !
 ! A73   A(4,25,24)            119.18           estimate D2E/DX2                !
 ! A74   A(4,25,26)            119.2912         estimate D2E/DX2                !
 ! A75   A(24,25,26)           121.5288         estimate D2E/DX2                !
 ! A76   A(1,26,25)            120.769          estimate D2E/DX2                !
 ! A77   A(1,26,42)            118.8649         estimate D2E/DX2                !
 ! A78   A(25,26,42)           120.3661         estimate D2E/DX2                !
 ! D1    D(26,1,2,3)             0.0011         estimate D2E/DX2                !
 ! D2    D(26,1,2,28)         -179.9946         estimate D2E/DX2                !
 ! D3    D(27,1,2,3)          -179.9995         estimate D2E/DX2                !
 ! D4    D(27,1,2,28)            0.0048         estimate D2E/DX2                !
 ! D5    D(2,1,26,25)           -0.0041         estimate D2E/DX2                !
 ! D6    D(2,1,26,42)         -179.9941         estimate D2E/DX2                !
 ! D7    D(27,1,26,25)         179.9966         estimate D2E/DX2                !
 ! D8    D(27,1,26,42)           0.0066         estimate D2E/DX2                !
 ! D9    D(1,2,3,4)              0.0034         estimate D2E/DX2                !
 ! D10   D(1,2,3,29)          -179.9961         estimate D2E/DX2                !
 ! D11   D(28,2,3,4)           179.999          estimate D2E/DX2                !
 ! D12   D(28,2,3,29)           -0.0004         estimate D2E/DX2                !
 ! D13   D(2,3,4,5)            179.9999         estimate D2E/DX2                !
 ! D14   D(2,3,4,25)            -0.0048         estimate D2E/DX2                !
 ! D15   D(29,3,4,5)            -0.0007         estimate D2E/DX2                !
 ! D16   D(29,3,4,25)          179.9946         estimate D2E/DX2                !
 ! D17   D(3,4,5,6)            179.9977         estimate D2E/DX2                !
 ! D18   D(3,4,5,30)            -0.0001         estimate D2E/DX2                !
 ! D19   D(25,4,5,6)             0.0024         estimate D2E/DX2                !
 ! D20   D(25,4,5,30)         -179.9954         estimate D2E/DX2                !
 ! D21   D(3,4,25,24)         -179.9986         estimate D2E/DX2                !
 ! D22   D(3,4,25,26)            0.0019         estimate D2E/DX2                !
 ! D23   D(5,4,25,24)           -0.0031         estimate D2E/DX2                !
 ! D24   D(5,4,25,26)          179.9973         estimate D2E/DX2                !
 ! D25   D(4,5,6,7)            179.9986         estimate D2E/DX2                !
 ! D26   D(4,5,6,23)            -0.0026         estimate D2E/DX2                !
 ! D27   D(30,5,6,7)            -0.0036         estimate D2E/DX2                !
 ! D28   D(30,5,6,23)          179.9952         estimate D2E/DX2                !
 ! D29   D(5,6,7,8)            179.9999         estimate D2E/DX2                !
 ! D30   D(5,6,7,31)             0.0037         estimate D2E/DX2                !
 ! D31   D(23,6,7,8)             0.0011         estimate D2E/DX2                !
 ! D32   D(23,6,7,31)         -179.9951         estimate D2E/DX2                !
 ! D33   D(5,6,23,22)          179.9979         estimate D2E/DX2                !
 ! D34   D(5,6,23,24)            0.0036         estimate D2E/DX2                !
 ! D35   D(7,6,23,22)           -0.0033         estimate D2E/DX2                !
 ! D36   D(7,6,23,24)         -179.9975         estimate D2E/DX2                !
 ! D37   D(6,7,8,9)             -0.0003         estimate D2E/DX2                !
 ! D38   D(6,7,8,21)          -179.9974         estimate D2E/DX2                !
 ! D39   D(31,7,8,9)           179.9958         estimate D2E/DX2                !
 ! D40   D(31,7,8,21)           -0.0013         estimate D2E/DX2                !
 ! D41   D(7,8,9,10)           179.9994         estimate D2E/DX2                !
 ! D42   D(7,8,9,22)             0.0018         estimate D2E/DX2                !
 ! D43   D(21,8,9,10)           -0.0032         estimate D2E/DX2                !
 ! D44   D(21,8,9,22)          179.9991         estimate D2E/DX2                !
 ! D45   D(7,8,21,12)         -179.999          estimate D2E/DX2                !
 ! D46   D(7,8,21,20)           -0.0027         estimate D2E/DX2                !
 ! D47   D(9,8,21,12)            0.0039         estimate D2E/DX2                !
 ! D48   D(9,8,21,20)         -179.9998         estimate D2E/DX2                !
 ! D49   D(8,9,10,11)            0.0015         estimate D2E/DX2                !
 ! D50   D(8,9,10,32)         -179.9963         estimate D2E/DX2                !
 ! D51   D(22,9,10,11)         179.9992         estimate D2E/DX2                !
 ! D52   D(22,9,10,32)           0.0014         estimate D2E/DX2                !
 ! D53   D(8,9,22,23)           -0.0042         estimate D2E/DX2                !
 ! D54   D(8,9,22,40)         -179.9998         estimate D2E/DX2                !
 ! D55   D(10,9,22,23)         179.9982         estimate D2E/DX2                !
 ! D56   D(10,9,22,40)           0.0025         estimate D2E/DX2                !
 ! D57   D(9,10,11,12)          -0.0002         estimate D2E/DX2                !
 ! D58   D(9,10,11,33)         179.9978         estimate D2E/DX2                !
 ! D59   D(32,10,11,12)        179.9976         estimate D2E/DX2                !
 ! D60   D(32,10,11,33)         -0.0044         estimate D2E/DX2                !
 ! D61   D(10,11,12,13)        179.9984         estimate D2E/DX2                !
 ! D62   D(10,11,12,21)          0.0009         estimate D2E/DX2                !
 ! D63   D(33,11,12,13)          0.0005         estimate D2E/DX2                !
 ! D64   D(33,11,12,21)       -179.9971         estimate D2E/DX2                !
 ! D65   D(11,12,13,14)          0.0054         estimate D2E/DX2                !
 ! D66   D(11,12,13,18)        179.9988         estimate D2E/DX2                !
 ! D67   D(21,12,13,14)       -179.9972         estimate D2E/DX2                !
 ! D68   D(21,12,13,18)         -0.0037         estimate D2E/DX2                !
 ! D69   D(11,12,21,8)          -0.0027         estimate D2E/DX2                !
 ! D70   D(11,12,21,20)       -179.9992         estimate D2E/DX2                !
 ! D71   D(13,12,21,8)         179.9997         estimate D2E/DX2                !
 ! D72   D(13,12,21,20)          0.0032         estimate D2E/DX2                !
 ! D73   D(12,13,14,15)        179.9998         estimate D2E/DX2                !
 ! D74   D(12,13,14,34)         -0.0087         estimate D2E/DX2                !
 ! D75   D(18,13,14,15)          0.0061         estimate D2E/DX2                !
 ! D76   D(18,13,14,34)        179.9977         estimate D2E/DX2                !
 ! D77   D(12,13,18,17)       -179.9988         estimate D2E/DX2                !
 ! D78   D(12,13,18,19)          0.0032         estimate D2E/DX2                !
 ! D79   D(14,13,18,17)         -0.0048         estimate D2E/DX2                !
 ! D80   D(14,13,18,19)        179.9972         estimate D2E/DX2                !
 ! D81   D(13,14,15,16)         -0.0054         estimate D2E/DX2                !
 ! D82   D(13,14,15,35)        179.9975         estimate D2E/DX2                !
 ! D83   D(34,14,15,16)       -179.9973         estimate D2E/DX2                !
 ! D84   D(34,14,15,35)          0.0056         estimate D2E/DX2                !
 ! D85   D(14,15,16,17)          0.003          estimate D2E/DX2                !
 ! D86   D(14,15,16,36)        179.9998         estimate D2E/DX2                !
 ! D87   D(35,15,16,17)       -179.9998         estimate D2E/DX2                !
 ! D88   D(35,15,16,36)         -0.0031         estimate D2E/DX2                !
 ! D89   D(15,16,17,18)         -0.0019         estimate D2E/DX2                !
 ! D90   D(15,16,17,37)       -179.9991         estimate D2E/DX2                !
 ! D91   D(36,16,17,18)       -179.9986         estimate D2E/DX2                !
 ! D92   D(36,16,17,37)          0.0041         estimate D2E/DX2                !
 ! D93   D(16,17,18,13)          0.0029         estimate D2E/DX2                !
 ! D94   D(16,17,18,19)       -179.9991         estimate D2E/DX2                !
 ! D95   D(37,17,18,13)       -179.9999         estimate D2E/DX2                !
 ! D96   D(37,17,18,19)         -0.0019         estimate D2E/DX2                !
 ! D97   D(13,18,19,20)         -0.0023         estimate D2E/DX2                !
 ! D98   D(13,18,19,38)        179.9974         estimate D2E/DX2                !
 ! D99   D(17,18,19,20)        179.9997         estimate D2E/DX2                !
 ! D100  D(17,18,19,38)         -0.0007         estimate D2E/DX2                !
 ! D101  D(18,19,20,21)          0.0019         estimate D2E/DX2                !
 ! D102  D(18,19,20,39)        179.999          estimate D2E/DX2                !
 ! D103  D(38,19,20,21)       -179.9978         estimate D2E/DX2                !
 ! D104  D(38,19,20,39)         -0.0006         estimate D2E/DX2                !
 ! D105  D(19,20,21,8)        -179.9988         estimate D2E/DX2                !
 ! D106  D(19,20,21,12)         -0.0023         estimate D2E/DX2                !
 ! D107  D(39,20,21,8)           0.0042         estimate D2E/DX2                !
 ! D108  D(39,20,21,12)       -179.9993         estimate D2E/DX2                !
 ! D109  D(9,22,23,6)            0.0049         estimate D2E/DX2                !
 ! D110  D(9,22,23,24)         179.999          estimate D2E/DX2                !
 ! D111  D(40,22,23,6)        -179.9995         estimate D2E/DX2                !
 ! D112  D(40,22,23,24)         -0.0054         estimate D2E/DX2                !
 ! D113  D(6,23,24,25)          -0.0045         estimate D2E/DX2                !
 ! D114  D(6,23,24,41)         179.9931         estimate D2E/DX2                !
 ! D115  D(22,23,24,25)       -179.9986         estimate D2E/DX2                !
 ! D116  D(22,23,24,41)         -0.001          estimate D2E/DX2                !
 ! D117  D(23,24,25,4)           0.0043         estimate D2E/DX2                !
 ! D118  D(23,24,25,26)       -179.9961         estimate D2E/DX2                !
 ! D119  D(41,24,25,4)        -179.9934         estimate D2E/DX2                !
 ! D120  D(41,24,25,26)          0.0062         estimate D2E/DX2                !
 ! D121  D(4,25,26,1)            0.0026         estimate D2E/DX2                !
 ! D122  D(4,25,26,42)         179.9924         estimate D2E/DX2                !
 ! D123  D(24,25,26,1)        -179.997          estimate D2E/DX2                !
 ! D124  D(24,25,26,42)         -0.0072         estimate D2E/DX2                !
 --------------------------------------------------------------------------------
 Trust Radius=3.00D-01 FncErr=1.00D-07 GrdErr=1.00D-06 EigMax=2.50D+02 EigMin=1.00D-04
 Number of steps in this run=    252 maximum allowed number of steps=    252.
 GradGradGradGradGradGradGradGradGradGradGradGradGradGradGradGradGradGrad

                          Input orientation:                          
 ---------------------------------------------------------------------
 Center     Atomic      Atomic             Coordinates (Angstroms)
 Number     Number       Type             X           Y           Z
 ---------------------------------------------------------------------
      1          6           0        7.063400   -0.488500   -0.616500
      2          6           0        6.938600    0.576700    0.270100
      3          6           0        5.672000    1.005600    0.669900
      4          6           0        4.513700    0.373800    0.187500
      5          6           0        3.231200    0.792600    0.579500
      6          6           0        2.071700    0.160100    0.096500
      7          6           0        0.783100    0.576300    0.486600
      8          6           0       -0.411300   -0.038000    0.019900
      9          6           0       -0.242500   -1.114700   -0.877800
     10          6           0       -1.360300   -1.771400   -1.382300
     11          6           0       -2.646200   -1.380300   -1.013100
     12          6           0       -2.888600   -0.314900   -0.122200
     13          6           0       -4.225900    0.085900    0.256800
     14          6           0       -5.418700   -0.529300   -0.210600
     15          6           0       -6.691300   -0.104500    0.186000
     16          6           0       -6.821000    0.955300    1.068300
     17          6           0       -5.678400    1.585800    1.550200
     18          6           0       -4.395900    1.164600    1.156200
     19          6           0       -3.278700    1.821400    1.660800
     20          6           0       -1.992700    1.429800    1.291200
     21          6           0       -1.749000    0.364000    0.399900
     22          6           0        1.039600   -1.536900   -1.272600
     23          6           0        2.200100   -0.913100   -0.796900
     24          6           0        3.481200   -1.336100   -1.192300
     25          6           0        4.640400   -0.706000   -0.711300
     26          6           0        5.921900   -1.126200   -1.104500
     27          1           0        8.048700   -0.824200   -0.929200
     28          1           0        7.826100    1.074800    0.651300
     29          1           0        5.595000    1.839900    1.363500
     30          1           0        3.134000    1.625900    1.273000
     31          1           0        0.724900    1.410900    1.179800
     32          1           0       -1.250300   -2.603300   -2.075100
     33          1           0       -3.464800   -1.943800   -1.451000
     34          1           0       -5.381200   -1.364500   -0.903700
     35          1           0       -7.575200   -0.606500   -0.198600
     36          1           0       -7.805200    1.291900    1.381700
     37          1           0       -5.796500    2.416900    2.242700
     38          1           0       -3.389900    2.653100    2.353500
     39          1           0       -1.175400    1.994300    1.729900
     40          1           0        1.136600   -2.370700   -1.966600
     41          1           0        3.577300   -2.169500   -1.885800
     42          1           0        6.039900   -1.957000   -1.796600
 ---------------------------------------------------------------------
                    Distance matrix (angstroms):
                    1          2          3          4          5
     1  C    0.000000
     2  C    1.391505   0.000000
     3  C    2.413121   1.395733   0.000000
     4  C    2.809083   2.434775   1.404827   0.000000
     5  C    4.213952   3.726547   2.451743   1.404943   0.000000
     6  C    5.083908   4.887782   3.742435   2.453021   1.406338
     7  C    6.464735   6.159306   4.911134   3.748045   2.459392
     8  C    7.515258   7.379803   6.206298   4.945027   3.777678
     9  C    7.337341   7.466372   6.470885   5.096267   4.222334
    10  C    8.555174   8.781557   7.834315   6.447483   5.612898
    11  C    9.758531   9.866349   8.815751   7.468767   6.465423
    12  C    9.965780   9.875359   8.697989   7.440717   6.258665
    13  C   11.337587  11.175291   9.949117   8.744615   7.497460
    14  C   12.488765  12.416005  11.230976   9.981315   8.785923
    15  C   13.783441  13.647171  12.422466  11.215204   9.970739
    16  C   14.060572  13.787931  12.499452  11.383733  10.065392
    17  C   13.090102  12.721856  11.399261  10.353975   8.997355
    18  C   11.712846  11.384274  10.080892   8.996928   7.657912
    19  C   10.838854  10.386363   9.042259   8.061492   6.678805
    20  C    9.451568   9.029870   7.701531   6.683302   5.310525
    21  C    8.911690   8.691173   7.453576   6.266308   5.001834
    22  C    6.149453   6.453327   5.629986   4.225167   3.695938
    23  C    4.885132   5.080490   4.229303   2.824518   2.422201
    24  C    3.725873   4.213197   3.708228   2.427687   2.780852
    25  C    2.434589   2.808948   2.429298   1.410625   2.428541
    26  C    1.395646   2.413104   2.784873   2.429463   3.709113
    27  H    1.086873   2.152478   3.399116   3.895953   5.300804
    28  H    2.152425   1.086772   2.155291   3.417383   4.604118
    29  H    3.390877   2.143935   1.087689   2.168325   2.701674
    30  H    4.845728   4.072052   2.681407   2.156302   1.088476
    31  H    6.856457   6.335102   4.989796   4.051573   2.650320
    32  H    8.701580   9.092329   8.275109   6.870675   6.217948
    33  H   10.661017  10.841856   9.832512   8.468318   7.513137
    34  H   12.478699  12.526912  11.413449  10.105516   9.001466
    35  H   14.645039  14.569490  13.373162  12.134726  10.924340
    36  H   15.107544  14.802932  13.499020  12.410653  11.076775
    37  H   13.490493  13.017690  11.661559  10.709731   9.322229
    38  H   11.312030  10.739176   9.363055   8.506095   7.102640
    39  H    8.918953   8.365262   6.999144   6.113172   4.710162
    40  H    6.363364   6.881366   6.238621   4.855639   4.569074
    41  H    4.073055   4.846427   4.582644   3.412300   3.869306
    42  H    2.143987   3.390951   3.872463   3.420317   4.592924
                    6          7          8          9         10
     6  C    0.000000
     7  C    1.409216   0.000000
     8  C    2.492067   1.421888   0.000000
     9  C    2.816007   2.402691   1.411964   0.000000
    10  C    4.206681   3.687634   2.423106   1.391133   0.000000
    11  C    5.085531   4.223444   2.804218   2.422111   1.393846
    12  C    4.987788   3.827043   2.496774   2.865738   2.458647
    13  C    6.300077   5.038192   3.823957   4.312335   3.787859
    14  C    7.528325   6.338041   5.036721   5.251752   4.402988
    15  C    8.767451   7.511358   6.282548   6.613562   5.801524
    16  C    8.980916   7.635729   6.570391   7.165812   6.577201
    17  C    8.013109   6.625807   5.720217   6.537346   6.206153
    18  C    6.630372   5.255141   4.314448   5.155880   4.927367
    19  C    5.816677   4.407634   3.791029   4.927848   5.084184
    20  C    4.422532   3.013455   2.504290   3.773889   4.218437
    21  C    3.838147   2.542463   1.447565   2.467512   2.808426
    22  C    2.412359   2.761556   2.454051   1.406378   2.413824
    23  C    1.402287   2.423546   2.872694   2.452240   3.708884
    24  C    2.426172   3.708871   4.278557   3.743510   4.864741
    25  C    2.828584   4.237691   5.147869   4.902802   6.131372
    26  C    4.233321   5.642461   6.523640   6.168578   7.316003
    27  H    6.143731   7.533580   8.549298   8.296447   9.467406
    28  H    5.852999   7.062540   8.336171   8.499080   9.829869
    29  H    4.103737   5.051734   6.434859   6.915887   8.304041
    30  H    2.158982   2.691991   4.111931   4.851555   6.228242
    31  H    2.133521   1.086495   2.176150   3.398270   4.586878
    32  H    4.836105   4.561456   3.416681   2.159888   1.088177
    33  H    6.121600   5.305643   3.888378   3.376268   2.112667
    34  H    7.672713   6.610464   5.226141   5.144833   4.069676
    35  H    9.681810   8.469338   7.189743   7.381603   6.432971
    36  H   10.024264   8.664421   7.634978   8.251757   7.652466
    37  H    8.462145   7.054278   6.322005   7.283999   7.096644
    38  H    6.413905   5.021189   4.643250   5.877393   6.136096
    39  H    4.071356   2.718868   2.763728   4.163686   4.888811
    40  H    3.396431   3.850709   3.432734   2.159847   2.633453
    41  H    3.409308   4.579875   4.907537   4.088953   4.979145
    42  H    4.879811   6.266144   6.971385   6.404859   7.414112
                   11         12         13         14         15
    11  C    0.000000
    12  C    1.409801   0.000000
    13  C    2.501568   1.446600   0.000000
    14  C    3.009147   2.540706   1.421163   0.000000
    15  C    4.407759   3.820966   2.473755   1.399020   0.000000
    16  C    5.216916   4.300520   2.854634   2.409578   1.385082
    17  C    4.956056   3.767302   2.456082   2.764328   2.396690
    18  C    3.774100   2.468842   1.414713   2.404903   2.796563
    19  C    4.219085   2.809812   2.424946   3.688838   4.186880
    20  C    3.692360   2.417502   2.804146   4.222671   5.064818
    21  C    2.417461   1.425546   2.496568   3.825885   4.969062
    22  C    3.698241   4.271705   5.718220   6.622140   7.996630
    23  C    4.873566   5.167972   6.588001   7.650958   8.982033
    24  C    6.130179   6.539290   7.970029   8.990155  10.339067
    25  C    7.323954   7.562132   8.954083  10.073104  11.383074
    26  C    8.572354   8.902136  10.310197  11.391425  12.720144
    27  H   10.709677  10.978851  12.365302  13.489782  14.799636
    28  H   10.884246  10.832099  12.098936  13.369395  14.572651
    29  H    9.161621   8.878172  10.037499  11.375082  12.494814
    30  H    6.904651   6.479583   7.587647   8.943972  10.035555
    31  H    4.895296   4.210816   5.207492   6.591010   7.634402
    32  H    2.138249   3.425583   4.639370   5.015316   6.400082
    33  H    1.085999   2.179686   2.759626   2.712403   4.058706
    34  H    2.737233   2.815219   2.187496   1.085980   2.119294
    35  H    5.055415   4.696284   3.450307   2.157915   1.086830
    36  H    6.284187   5.386694   3.940967   3.398172   2.149513
    37  H    5.911290   4.638035   3.441532   3.852468   3.374632
    38  H    5.306166   3.897360   3.418415   4.562708   4.816810
    39  H    4.590776   3.420195   3.888131   5.304686   6.100307
    40  H    4.024876   4.881635   6.303554   7.031803   8.428841
    41  H    6.333750   6.953969   8.400446   9.296481  10.677112
    42  H    8.740411   9.231372  10.666609  11.655610  13.017139
                   16         17         18         19         20
    16  C    0.000000
    17  C    1.391148   0.000000
    18  C    2.435702   1.406219   0.000000
    19  C    3.694465   2.413773   1.390735   0.000000
    20  C    4.856677   3.698081   2.421555   1.394185   0.000000
    21  C    5.149911   4.272724   2.866885   2.460460   1.410580
    22  C    8.572042   7.927861   6.537724   6.207313   4.956735
    23  C    9.399475   8.592098   7.186004   6.598108   5.237262
    24  C   10.793338   9.997854   8.591720   7.987880   6.616763
    25  C   11.717106  10.809457   9.414957   8.644464   7.250494
    26  C   13.093327  12.205300  10.808123  10.049193   8.655253
    27  H   15.108428  14.155875  12.773891  11.917101  10.528077
    28  H   14.653522  13.544027  12.232754  11.175557   9.846031
    29  H   12.450973  11.277809  10.015842   8.878698   7.599118
    30  H    9.979661   8.816850   7.544921   6.427389   5.130481
    31  H    7.560464   6.416388   5.126774   4.053231   2.719948
    32  H    7.319651   7.092209   5.876493   6.135905   5.305566
    33  H    5.100562   5.134715   4.162522   4.888217   4.589980
    34  H    3.367979   3.848925   3.407397   4.598600   4.909952
    35  H    2.147806   3.385606   3.883327   5.273706   6.126200
    36  H    1.086356   2.153613   3.419120   4.565903   5.814840
    37  H    2.136607   1.088224   2.170350   2.651895   4.043342
    38  H    4.038157   2.649840   2.158980   1.088083   2.139419
    39  H    5.778411   4.525061   3.374782   2.111526   1.085862
    40  H    9.143101   8.629368   7.270405   7.087073   5.903353
    41  H   11.252365  10.562971   9.161982   8.689671   7.353447
    42  H   13.494143  12.691377  11.285802  10.633260   9.248113
                   21         22         23         24         25
    21  C    0.000000
    22  C    3.766559   0.000000
    23  C    4.319572   1.400777   0.000000
    24  C    5.725420   2.451159   1.405876   0.000000
    25  C    6.572982   3.737809   2.450568   1.404326   0.000000
    26  C    7.957803   4.902426   3.740565   2.451282   1.404783
    27  H    9.958577   7.053605   5.850772   4.603620   3.417303
    28  H    9.604737   7.521898   6.140106   5.299949   3.895717
    29  H    7.552559   6.253277   4.875621   4.592085   3.420185
    30  H    5.118436   4.568358   3.406344   3.869328   3.412396
    31  H    2.797217   3.847444   3.388884   4.557418   4.836183
    32  H    3.896049   2.650445   4.049177   4.977170   6.337195
    33  H    3.419904   4.526258   5.794936   6.977331   8.232471
    34  H    4.228470   6.433699   7.595477   8.867143  10.045054
    35  H    5.936723   8.731203   9.798391  11.124915  12.226759
    36  H    6.205037   9.658049  10.474462  11.870749  12.777528
    37  H    4.898221   8.644196   9.180070  10.581113  11.287493
    38  H    3.427694   7.094024   7.341042   8.700484   9.228341
    39  H    2.180779   5.137179   5.121689   6.427654   6.861094
    40  H    4.626618   1.089159   2.150309   2.677142   4.077207
    41  H    6.325545   2.686283   2.158917   1.088454   2.156725
    42  H    8.418944   5.045202   4.102827   2.701415   2.168289
                   26         27         28         29         30
    26  C    0.000000
    27  H    2.155275   0.000000
    28  H    3.399002   2.480672   0.000000
    29  H    3.872420   4.286554   2.463821   0.000000
    30  H    4.582461   5.916667   4.765084   2.471944   0.000000
    31  H    6.218015   7.942393   7.128767   4.892408   2.420470
    32  H    7.386768   9.536754  10.165762   8.855740   6.951114
    33  H    9.428609  11.579571  11.875017  10.213607   7.981672
    34  H   11.307395  13.440788  13.520391  11.656987   9.283811
    35  H   13.537446  15.642488  15.516093  13.486260  11.037943
    36  H   14.158449  16.160578  15.649861  13.411413  10.944838
    37  H   12.691659  14.568982  13.780748  11.439939   9.017751
    38  H   10.627817  12.397956  11.453697   9.075782   6.692077
    39  H    8.254878  10.004938   9.112401   6.782065   4.349184
    40  H    5.019073   7.158560   7.967075   6.978255   5.518825
    41  H    2.682546   4.766375   5.917319   5.541151   4.957781
    42  H    1.087729   2.463919   4.286553   4.959901   5.541107
                   31         32         33         34         35
    31  H    0.000000
    32  H    5.532593   0.000000
    33  H    5.977349   2.393418   0.000000
    34  H    7.023409   4.468908   2.075503   0.000000
    35  H    8.652257   6.892955   4.500252   2.425977   0.000000
    36  H    8.533319   8.371903   6.110075   4.260903   2.480760
    37  H    6.683596   8.032045   6.172192   4.936729   4.273718
    38  H    4.455582   7.198620   5.967522   5.542178   5.886845
    39  H    2.062548   5.968380   5.555908   5.992173   7.172218
    40  H    4.936581   2.400660   4.649835   6.680113   9.062764
    41  H    5.509388   4.850746   7.059119   9.048053  11.387180
    42  H    6.960670   7.324089   9.510990  11.471262  13.774919
                   36         37         38         39         40
    36  H    0.000000
    37  H    2.458012   0.000000
    38  H    4.721455   2.420700   0.000000
    39  H    6.675991   4.668631   2.393095   0.000000
    40  H   10.226512   9.418450   8.024402   6.169496   0.000000
    41  H   12.337713  11.222642   9.474757   7.280019   2.450312
    42  H   14.572019  13.249427  11.287049   8.950393   4.923657
                   41         42
    41  H    0.000000
    42  H    2.473360   0.000000
 Stoichiometry    C26H16
 Framework group  CS[SG(C26H16)]
 Deg. of freedom    81
 Full point group                 CS      NOp   2
 Largest Abelian subgroup         CS      NOp   2
 Largest concise Abelian subgroup C1      NOp   1
                         Standard orientation:                         
 ---------------------------------------------------------------------
 Center     Atomic      Atomic             Coordinates (Angstroms)
 Number     Number       Type             X           Y           Z
 ---------------------------------------------------------------------
      1          6           0       -1.566529   -6.940878   -0.000000
      2          6           0       -0.175390   -6.972791   -0.000000
      3          6           0        0.548819   -5.779647    0.000000
      4          6           0       -0.110021   -4.538893   -0.000000
      5          6           0        0.603306   -3.328510    0.000000
      6          6           0       -0.056315   -2.086460   -0.000000
      7          6           0        0.654505   -0.869650    0.000000
      8          6           0        0.023072    0.404342    0.000000
      9          6           0       -1.388856    0.394312   -0.000000
     10          6           0       -2.085317    1.598552   -0.000000
     11          6           0       -1.407257    2.816353   -0.000000
     12          6           0       -0.000000    2.901010    0.000000
     13          6           0        0.697481    4.168359    0.000000
     14          6           0        0.064737    5.440891    0.000000
     15          6           0        0.784455    6.640584    0.000000
     16          6           0        2.169288    6.614318    0.000000
     17          6           0        2.828583    5.389319    0.000000
     18          6           0        2.112153    4.179287    0.000000
     19          6           0        2.808821    2.975627    0.000000
     20          6           0        2.130113    1.757799    0.000000
     21          6           0        0.722151    1.671913    0.000000
     22          6           0       -2.106514   -0.815179   -0.000000
     23          6           0       -1.458291   -2.056945   -0.000000
     24          6           0       -2.176829   -3.265329   -0.000000
     25          6           0       -1.520279   -4.506729   -0.000000
     26          6           0       -2.235325   -5.715913   -0.000000
     27          1           0       -2.132543   -7.868736   -0.000000
     28          1           0        0.347479   -7.925514   -0.000000
     29          1           0        1.635553   -5.825209    0.000000
     30          1           0        1.691485   -3.353898    0.000000
     31          1           0        1.739098   -0.933897    0.000000
     32          1           0       -3.173423    1.611045   -0.000000
     33          1           0       -2.023868    3.710325   -0.000000
     34          1           0       -1.017923    5.525756   -0.000000
     35          1           0        0.256041    7.590309    0.000000
     36          1           0        2.736310    7.540954    0.000000
     37          1           0        3.916798    5.384970    0.000000
     38          1           0        3.896845    2.964351    0.000000
     39          1           0        2.748143    0.864974    0.000000
     40          1           0       -3.195371   -0.789514   -0.000000
     41          1           0       -3.264961   -3.238837   -0.000000
     42          1           0       -3.323045   -5.711515   -0.000000
 ---------------------------------------------------------------------
 Rotational constants (GHZ):           0.8555226           0.0830682           0.0757164
 Standard basis: def2SVPP (5D, 7F)
 There are   318 symmetry adapted cartesian basis functions of A'  symmetry.
 There are   104 symmetry adapted cartesian basis functions of A"  symmetry.
 There are   292 symmetry adapted basis functions of A'  symmetry.
 There are   104 symmetry adapted basis functions of A"  symmetry.
   396 basis functions,   714 primitive gaussians,   422 cartesian basis functions
    86 alpha electrons       86 beta electrons
       nuclear repulsion energy      1938.7717414156 Hartrees.
 NAtoms=   42 NActive=   42 NUniq=   42 SFac= 1.00D+00 NAtFMM=   60 NAOKFM=F Big=F
 Integral buffers will be    131072 words long.
 Raffenetti 2 integral format.
 Two-electron integral symmetry is turned on.
 Nuclear repulsion after empirical dispersion term =     1938.6623083804 Hartrees.
 One-electron integrals computed using PRISM.
   2 Symmetry operations used in ECPInt.
 ECPInt:  NShTT=   17766 NPrTT=   71262 LenC2=   14817 LenP2D=   39339.
 LDataN:  DoStor=T MaxTD1= 4 Len=   56
 NBasis=   396 RedAO= T EigKep=  1.98D-04  NBF=   292   104
 NBsUse=   396 1.00D-06 EigRej= -1.00D+00 NBFU=   292   104
 ExpMin= 1.22D-01 ExpMax= 1.24D+03 ExpMxC= 1.86D+02 IAcc=3 IRadAn=         5 AccDes= 0.00D+00
 Harris functional with IExCor=  402 and IRadAn=       5 diagonalized for initial guess.
 HarFok:  IExCor=  402 AccDes= 0.00D+00 IRadAn=         5 IDoV= 1 UseB2=F ITyADJ=14
 ICtDFT=  3500011 ScaDFX=  1.000000  1.000000  1.000000  1.000000
 FoFCou: FMM=F IPFlag=           0 FMFlag=      100000 FMFlg1=           0
         NFxFlg=           0 DoJE=T BraDBF=F KetDBF=T FulRan=T
         wScrn=  0.000000 ICntrl=       500 IOpCl=  0 I1Cent=   200000004 NGrid=           0
         NMat0=    1 NMatS0=      1 NMatT0=    0 NMatD0=    1 NMtDS0=    0 NMtDT0=    0
 Petite list used in FoFCou.
 Initial guess orbital symmetries:
       Occupied  (A') (A') (A') (A') (A') (A') (A') (A') (A') (A')
                 (A') (A') (A') (A') (A') (A') (A') (A') (A') (A')
                 (A') (A') (A') (A') (A') (A') (A') (A') (A') (A')
                 (A') (A') (A') (A') (A') (A') (A') (A') (A') (A')
                 (A') (A') (A') (A') (A') (A') (A') (A') (A') (A')
                 (A') (A') (A') (A') (A') (A') (A') (A') (A') (A')
                 (A') (A') (A') (A') (A') (A') (A") (A') (A") (A')
                 (A') (A") (A') (A') (A') (A") (A') (A") (A") (A")
                 (A") (A") (A") (A") (A") (A")
       Virtual   (A") (A") (A") (A") (A") (A") (A") (A") (A") (A")
                 (A') (A') (A') (A') (A') (A") (A') (A') (A') (A')
                 (A") (A') (A') (A') (A') (A") (A') (A') (A') (A')
                 (A') (A') (A') (A') (A') (A') (A') (A') (A') (A')
                 (A') (A') (A') (A') (A') (A') (A') (A') (A') (A')
                 (A') (A') (A') (A') (A') (A') (A') (A') (A') (A')
                 (A') (A') (A') (A') (A') (A') (A") (A') (A") (A')
                 (A') (A') (A") (A') (A') (A") (A') (A") (A') (A")
                 (A') (A') (A') (A") (A') (A") (A') (A') (A") (A')
                 (A") (A") (A') (A") (A") (A") (A") (A') (A') (A")
                 (A") (A') (A') (A') (A') (A') (A') (A") (A') (A')
                 (A') (A') (A') (A') (A') (A") (A") (A') (A') (A')
                 (A") (A') (A') (A') (A") (A') (A') (A') (A') (A")
                 (A') (A') (A') (A') (A") (A") (A') (A') (A') (A')
                 (A') (A") (A') (A') (A') (A') (A') (A') (A') (A')
                 (A') (A') (A') (A') (A') (A') (A') (A') (A') (A")
                 (A") (A') (A") (A") (A') (A") (A') (A") (A') (A')
                 (A') (A') (A") (A') (A') (A") (A') (A") (A") (A')
                 (A') (A") (A') (A") (A") (A') (A") (A") (A") (A")
                 (A') (A") (A") (A") (A") (A') (A') (A') (A') (A')
                 (A') (A') (A') (A') (A') (A') (A') (A') (A') (A")
                 (A") (A') (A') (A') (A') (A') (A") (A') (A') (A')
                 (A") (A') (A") (A') (A') (A") (A') (A') (A') (A")
                 (A') (A') (A') (A") (A') (A') (A') (A') (A') (A")
                 (A') (A') (A") (A') (A') (A') (A") (A") (A") (A')
                 (A') (A") (A') (A') (A") (A") (A') (A") (A") (A")
                 (A') (A") (A") (A") (A") (A') (A") (A') (A") (A')
                 (A') (A') (A') (A') (A") (A') (A') (A') (A') (A")
                 (A') (A") (A') (A') (A') (A") (A') (A') (A") (A')
                 (A") (A') (A') (A') (A') (A') (A') (A') (A') (A')
                 (A') (A') (A') (A') (A') (A') (A') (A') (A') (A')
 The electronic state of the initial guess is 1-A'.
 Requested convergence on RMS density matrix=1.00D-08 within 128 cycles.
 Requested convergence on MAX density matrix=1.00D-06.
 Requested convergence on             energy=1.00D-06.
 No special actions if energy rises.
 Integral accuracy reduced to 1.0D-05 until final iterations.
 Initial convergence to 1.0D-05 achieved.  Increase integral accuracy.
 SCF Done:  E(RB3LYP) =  -999.802353447     A.U. after   16 cycles
            NFock= 16  Conv=0.36D-08     -V/T= 2.0104

 **********************************************************************

            Population analysis using the SCF Density.

 **********************************************************************

 Orbital symmetries:
       Occupied  (A') (A') (A') (A') (A') (A') (A') (A') (A') (A')
                 (A') (A') (A') (A') (A') (A') (A') (A') (A') (A')
                 (A') (A') (A') (A') (A') (A') (A') (A') (A') (A')
                 (A') (A') (A') (A') (A') (A') (A') (A') (A') (A')
                 (A') (A') (A') (A') (A') (A') (A') (A') (A') (A')
                 (A') (A') (A') (A') (A') (A') (A') (A') (A') (A')
                 (A') (A") (A') (A') (A') (A") (A') (A') (A") (A')
                 (A') (A') (A") (A') (A') (A') (A') (A") (A") (A")
                 (A") (A") (A") (A") (A") (A")
       Virtual   (A") (A") (A") (A") (A") (A") (A") (A") (A') (A')
                 (A') (A") (A') (A') (A') (A') (A') (A") (A') (A')
                 (A') (A') (A') (A") (A') (A') (A") (A') (A') (A")
                 (A') (A') (A') (A') (A') (A') (A') (A') (A') (A')
                 (A') (A') (A') (A') (A') (A') (A') (A') (A') (A')
                 (A') (A') (A') (A') (A') (A') (A') (A') (A') (A')
                 (A') (A') (A') (A") (A') (A') (A") (A') (A') (A')
                 (A") (A') (A') (A") (A') (A') (A") (A') (A") (A')
                 (A') (A") (A') (A') (A") (A') (A") (A") (A') (A')
                 (A") (A') (A") (A") (A") (A") (A') (A") (A") (A')
                 (A') (A") (A') (A') (A') (A') (A') (A') (A") (A')
                 (A") (A') (A') (A") (A') (A') (A') (A") (A') (A')
                 (A') (A') (A') (A") (A') (A') (A') (A') (A') (A")
                 (A") (A') (A') (A') (A') (A') (A') (A') (A') (A")
                 (A') (A') (A') (A') (A') (A') (A') (A') (A') (A')
                 (A') (A') (A') (A') (A') (A') (A') (A') (A') (A')
                 (A") (A") (A') (A') (A") (A") (A") (A') (A") (A')
                 (A') (A') (A') (A') (A") (A') (A') (A') (A") (A')
                 (A") (A") (A') (A") (A") (A") (A') (A") (A') (A")
                 (A") (A") (A") (A') (A") (A") (A") (A') (A') (A')
                 (A') (A') (A') (A') (A') (A') (A") (A') (A') (A')
                 (A") (A') (A') (A') (A") (A') (A') (A') (A') (A")
                 (A') (A") (A') (A') (A') (A") (A') (A') (A') (A")
                 (A') (A') (A') (A") (A') (A') (A') (A') (A") (A')
                 (A') (A') (A") (A') (A') (A") (A') (A") (A") (A')
                 (A') (A") (A') (A") (A') (A") (A') (A") (A") (A")
                 (A") (A') (A") (A") (A") (A") (A') (A') (A") (A')
                 (A') (A') (A') (A') (A") (A') (A') (A") (A') (A")
                 (A') (A') (A') (A') (A") (A') (A') (A") (A') (A")
                 (A') (A') (A') (A') (A') (A') (A') (A') (A') (A')
                 (A') (A') (A') (A') (A') (A') (A') (A') (A') (A')
 The electronic state is 1-A'.
 Alpha  occ. eigenvalues --  -10.20362 -10.20338 -10.20306 -10.20242 -10.19698
 Alpha  occ. eigenvalues --  -10.19644 -10.19610 -10.19497 -10.19483 -10.19440
 Alpha  occ. eigenvalues --  -10.19397 -10.19277 -10.19181 -10.19089 -10.19074
 Alpha  occ. eigenvalues --  -10.19068 -10.19068 -10.19038 -10.19036 -10.19021
 Alpha  occ. eigenvalues --  -10.19010 -10.18992 -10.18955 -10.18910 -10.18889
 Alpha  occ. eigenvalues --  -10.18871  -0.89167  -0.88006  -0.86152  -0.83567
 Alpha  occ. eigenvalues --   -0.81049  -0.79116  -0.78228  -0.76471  -0.76061
 Alpha  occ. eigenvalues --   -0.73846  -0.72903  -0.71352  -0.68479  -0.66415
 Alpha  occ. eigenvalues --   -0.63260  -0.62981  -0.61253  -0.60737  -0.60092
 Alpha  occ. eigenvalues --   -0.59248  -0.56061  -0.53645  -0.53398  -0.51850
 Alpha  occ. eigenvalues --   -0.50936  -0.49597  -0.48733  -0.48168  -0.46523
 Alpha  occ. eigenvalues --   -0.45520  -0.45331  -0.44452  -0.43465  -0.43285
 Alpha  occ. eigenvalues --   -0.42094  -0.41997  -0.41879  -0.41490  -0.41224
 Alpha  occ. eigenvalues --   -0.40566  -0.40490  -0.39979  -0.38269  -0.37973
 Alpha  occ. eigenvalues --   -0.37519  -0.35788  -0.35118  -0.35097  -0.34281
 Alpha  occ. eigenvalues --   -0.33631  -0.32827  -0.32641  -0.30661  -0.30436
 Alpha  occ. eigenvalues --   -0.28242  -0.27083  -0.25037  -0.23705  -0.21818
 Alpha  occ. eigenvalues --   -0.18156
 Alpha virt. eigenvalues --   -0.09236  -0.05086  -0.03806  -0.02043   0.00209
 Alpha virt. eigenvalues --    0.01274   0.02887   0.04654   0.06267   0.06344
 Alpha virt. eigenvalues --    0.06583   0.07731   0.07837   0.07952   0.09387
 Alpha virt. eigenvalues --    0.09843   0.11142   0.11379   0.11817   0.12737
 Alpha virt. eigenvalues --    0.13361   0.14904   0.15004   0.16302   0.17479
 Alpha virt. eigenvalues --    0.19470   0.19941   0.21030   0.22245   0.22919
 Alpha virt. eigenvalues --    0.23144   0.24224   0.25606   0.26409   0.26688
 Alpha virt. eigenvalues --    0.26822   0.27520   0.27919   0.28507   0.28656
 Alpha virt. eigenvalues --    0.29556   0.30377   0.30832   0.31288   0.31576
 Alpha virt. eigenvalues --    0.31950   0.33434   0.33637   0.34695   0.35189
 Alpha virt. eigenvalues --    0.35362   0.36218   0.36617   0.36944   0.37644
 Alpha virt. eigenvalues --    0.38270   0.38742   0.39125   0.40223   0.41967
 Alpha virt. eigenvalues --    0.42560   0.43214   0.43485   0.44365   0.44858
 Alpha virt. eigenvalues --    0.45091   0.45347   0.45720   0.45958   0.46588
 Alpha virt. eigenvalues --    0.46769   0.47065   0.47530   0.47951   0.48169
 Alpha virt. eigenvalues --    0.48592   0.48791   0.49227   0.49550   0.49940
 Alpha virt. eigenvalues --    0.50667   0.51406   0.51562   0.51720   0.51919
 Alpha virt. eigenvalues --    0.52206   0.54599   0.54695   0.54834   0.55604
 Alpha virt. eigenvalues --    0.56641   0.57514   0.57784   0.58814   0.59041
 Alpha virt. eigenvalues --    0.60933   0.60971   0.62717   0.62911   0.64672
 Alpha virt. eigenvalues --    0.65346   0.65597   0.65770   0.66537   0.66932
 Alpha virt. eigenvalues --    0.67602   0.68354   0.68641   0.68689   0.69005
 Alpha virt. eigenvalues --    0.69298   0.69358   0.69614   0.70825   0.71122
 Alpha virt. eigenvalues --    0.71643   0.72413   0.72507   0.73115   0.73498
 Alpha virt. eigenvalues --    0.73959   0.74169   0.75217   0.75781   0.75854
 Alpha virt. eigenvalues --    0.76531   0.76815   0.77970   0.78774   0.78951
 Alpha virt. eigenvalues --    0.79150   0.79215   0.79933   0.80877   0.81467
 Alpha virt. eigenvalues --    0.82031   0.82417   0.83219   0.84489   0.85001
 Alpha virt. eigenvalues --    0.85456   0.86764   0.87798   0.89842   0.90560
 Alpha virt. eigenvalues --    0.91893   0.92693   0.96362   0.99847   1.00055
 Alpha virt. eigenvalues --    1.03243   1.08093   1.09400   1.10190   1.11892
 Alpha virt. eigenvalues --    1.13520   1.14672   1.16609   1.17502   1.20439
 Alpha virt. eigenvalues --    1.21012   1.21463   1.21660   1.22653   1.23130
 Alpha virt. eigenvalues --    1.23699   1.25015   1.25675   1.26211   1.26366
 Alpha virt. eigenvalues --    1.27896   1.28301   1.29869   1.30259   1.33505
 Alpha virt. eigenvalues --    1.33748   1.35803   1.36320   1.36650   1.37607
 Alpha virt. eigenvalues --    1.38309   1.38474   1.39788   1.40279   1.41700
 Alpha virt. eigenvalues --    1.42816   1.43965   1.45440   1.45706   1.45959
 Alpha virt. eigenvalues --    1.47309   1.48068   1.48687   1.48955   1.49237
 Alpha virt. eigenvalues --    1.49418   1.50140   1.50592   1.52696   1.53743
 Alpha virt. eigenvalues --    1.56039   1.67774   1.69668   1.70743   1.71417
 Alpha virt. eigenvalues --    1.72454   1.73720   1.74207   1.74597   1.75470
 Alpha virt. eigenvalues --    1.77113   1.80101   1.81134   1.82306   1.82785
 Alpha virt. eigenvalues --    1.83338   1.83680   1.85451   1.85726   1.86433
 Alpha virt. eigenvalues --    1.86633   1.87625   1.88213   1.88581   1.90011
 Alpha virt. eigenvalues --    1.90246   1.92586   1.94387   1.95484   1.97095
 Alpha virt. eigenvalues --    1.99053   2.00636   2.02624   2.03112   2.05029
 Alpha virt. eigenvalues --    2.06172   2.07840   2.08337   2.08718   2.09305
 Alpha virt. eigenvalues --    2.12036   2.13137   2.13488   2.16003   2.16590
 Alpha virt. eigenvalues --    2.17218   2.17971   2.18974   2.19361   2.20272
 Alpha virt. eigenvalues --    2.21058   2.22654   2.24147   2.25352   2.25861
 Alpha virt. eigenvalues --    2.26797   2.27574   2.28568   2.28648   2.31117
 Alpha virt. eigenvalues --    2.32268   2.32317   2.33693   2.34443   2.35721
 Alpha virt. eigenvalues --    2.36934   2.37395   2.39482   2.41577   2.45812
 Alpha virt. eigenvalues --    2.47952   2.48421   2.53090   2.55575   2.56080
 Alpha virt. eigenvalues --    2.58798   2.60536   2.61414   2.61493   2.62518
 Alpha virt. eigenvalues --    2.62538   2.63067   2.64254   2.65212   2.66045
 Alpha virt. eigenvalues --    2.66348   2.68264   2.68627   2.68953   2.69985
 Alpha virt. eigenvalues --    2.70903   2.73064   2.77349   2.78735   2.82094
 Alpha virt. eigenvalues --    2.83576   2.85874   2.89057   2.89971   2.92021
 Alpha virt. eigenvalues --    2.95619   3.00878   3.03186   3.08803   3.23808
 Alpha virt. eigenvalues --    3.33954   3.38699   3.43098   3.50296   3.54232
          Condensed to atoms (all electrons):
               1          2          3          4          5          6
     1  C    5.242555   0.135139   0.146981  -0.156851  -0.002295   0.000309
     2  C    0.135139   5.242955   0.228261   0.143221   0.019732  -0.001312
     3  C    0.146981   0.228261   5.459983   0.198720  -0.159266   0.018956
     4  C   -0.156851   0.143221   0.198720   5.425274   0.230941   0.143117
     5  C   -0.002295   0.019732  -0.159266   0.230941   5.734303   0.218748
     6  C    0.000309  -0.001312   0.018956   0.143117   0.218748   5.399995
     7  C   -0.000005   0.000016  -0.000959   0.020318  -0.158594   0.236282
     8  C    0.000000  -0.000000   0.000007  -0.001232   0.018642   0.120539
     9  C   -0.000000   0.000000  -0.000005   0.000261  -0.001760  -0.150796
    10  C   -0.000000   0.000000   0.000000  -0.000003   0.000089  -0.001471
    11  C   -0.000000  -0.000000  -0.000000   0.000000  -0.000005   0.000010
    12  C    0.000000  -0.000000   0.000000  -0.000000   0.000011   0.000721
    13  C   -0.000000   0.000000  -0.000000  -0.000000   0.000000   0.000002
    14  C    0.000000  -0.000000   0.000000  -0.000000   0.000000  -0.000000
    15  C   -0.000000   0.000000  -0.000000   0.000000  -0.000000  -0.000000
    16  C    0.000000  -0.000000   0.000000   0.000000  -0.000000   0.000000
    17  C   -0.000000   0.000000  -0.000000  -0.000000   0.000000  -0.000000
    18  C    0.000000  -0.000000   0.000000  -0.000000   0.000000   0.000008
    19  C   -0.000000   0.000000  -0.000000   0.000000  -0.000001  -0.000118
    20  C   -0.000000   0.000000  -0.000000   0.000001  -0.000066   0.000186
    21  C    0.000000  -0.000000   0.000000  -0.000000  -0.000445   0.023097
    22  C    0.000016  -0.000005   0.000111  -0.001625   0.025251   0.034793
    23  C   -0.001332   0.000301  -0.001427  -0.136230   0.032685  -0.061249
    24  C    0.019772  -0.002260   0.025515   0.028687  -0.145602   0.033453
    25  C    0.143260  -0.156953   0.045549  -0.033032   0.027884  -0.134102
    26  C    0.228180   0.146980  -0.176049   0.045406   0.025752  -0.001621
    27  H    0.436326  -0.084912   0.015121  -0.001432   0.000044  -0.000001
    28  H   -0.084907   0.436392  -0.076721   0.015778  -0.000494   0.000009
    29  H    0.015480  -0.081018   0.437547  -0.079090  -0.022028   0.000778
    30  H   -0.000028   0.000593  -0.018461  -0.083253   0.436217  -0.079811
    31  H   -0.000000   0.000001  -0.000040   0.000622  -0.019494  -0.083784
    32  H    0.000000   0.000000   0.000000  -0.000000   0.000001  -0.000013
    33  H    0.000000  -0.000000   0.000000   0.000000   0.000000  -0.000002
    34  H    0.000000  -0.000000   0.000000  -0.000000   0.000000   0.000000
    35  H    0.000000   0.000000   0.000000  -0.000000   0.000000  -0.000000
    36  H    0.000000   0.000000  -0.000000   0.000000   0.000000  -0.000000
    37  H   -0.000000   0.000000  -0.000000   0.000000  -0.000000  -0.000000
    38  H   -0.000000   0.000000  -0.000000  -0.000000  -0.000000  -0.000001
    39  H    0.000000  -0.000000   0.000000   0.000001  -0.000056   0.002052
    40  H    0.000000  -0.000000   0.000000   0.000002  -0.000425   0.019385
    41  H    0.000597  -0.000027  -0.000311   0.018000  -0.002340   0.018536
    42  H   -0.081131   0.015479  -0.002067   0.017537  -0.000327  -0.000015
               7          8          9         10         11         12
     1  C   -0.000005   0.000000  -0.000000  -0.000000  -0.000000   0.000000
     2  C    0.000016  -0.000000   0.000000   0.000000  -0.000000  -0.000000
     3  C   -0.000959   0.000007  -0.000005   0.000000  -0.000000   0.000000
     4  C    0.020318  -0.001232   0.000261  -0.000003   0.000000  -0.000000
     5  C   -0.158594   0.018642  -0.001760   0.000089  -0.000005   0.000011
     6  C    0.236282   0.120539  -0.150796  -0.001471   0.000010   0.000721
     7  C    5.719000   0.286453   0.014568   0.027211  -0.003507   0.020130
     8  C    0.286453   5.541549   0.011022   0.032443  -0.137328   0.006313
     9  C    0.014568   0.011022   5.515978   0.149152   0.154722  -0.175485
    10  C    0.027211   0.032443   0.149152   5.492312   0.230043   0.138523
    11  C   -0.003507  -0.137328   0.154722   0.230043   5.515968   0.167147
    12  C    0.020130   0.006313  -0.175485   0.138523   0.167147   5.614541
    13  C    0.000021   0.025622  -0.003863   0.022261  -0.145831   0.243617
    14  C    0.000007  -0.000004  -0.000111   0.001163  -0.027661  -0.148220
    15  C   -0.000000   0.000002   0.000007  -0.000093   0.000360   0.022188
    16  C    0.000000  -0.000002  -0.000001   0.000007   0.000011  -0.004478
    17  C   -0.000002   0.000071   0.000003  -0.000004  -0.000367   0.026313
    18  C   -0.000091  -0.003612  -0.000387   0.000193   0.025095   0.009428
    19  C    0.001010   0.021937   0.000282  -0.000081  -0.003467  -0.147699
    20  C   -0.030598  -0.146599   0.025901  -0.003683   0.027936  -0.002992
    21  C   -0.150376   0.219971   0.016166  -0.152094   0.004842   0.170136
    22  C   -0.149828   0.033995   0.229119  -0.163071   0.020135  -0.000642
    23  C    0.025922  -0.133762   0.155836   0.022622  -0.001451  -0.000132
    24  C    0.025311  -0.001231   0.020169  -0.001106   0.000018  -0.000005
    25  C   -0.001844   0.000214  -0.001443   0.000016  -0.000000   0.000000
    26  C    0.000108  -0.000003   0.000013  -0.000000  -0.000000  -0.000000
    27  H    0.000000   0.000000  -0.000000  -0.000000   0.000000  -0.000000
    28  H   -0.000000   0.000000   0.000000   0.000000  -0.000000   0.000000
    29  H   -0.000047   0.000000  -0.000000   0.000000  -0.000000   0.000000
    30  H   -0.021505   0.000559   0.000013   0.000001  -0.000000   0.000000
    31  H    0.415533  -0.052014   0.019875  -0.000319  -0.000012  -0.001473
    32  H   -0.000411   0.016335  -0.091308   0.444889  -0.077129   0.017065
    33  H    0.000051  -0.001677   0.017381  -0.077912   0.424704  -0.058576
    34  H    0.000000   0.000035  -0.000076   0.001531   0.011532  -0.040963
    35  H    0.000000  -0.000000   0.000000  -0.000001   0.000002  -0.000262
    36  H   -0.000000   0.000000   0.000000  -0.000000  -0.000000   0.000055
    37  H   -0.000000  -0.000001   0.000000  -0.000000   0.000009  -0.000154
    38  H    0.000002  -0.000370   0.000011  -0.000001   0.000046  -0.001874
    39  H    0.009989  -0.041611  -0.001351  -0.000034  -0.000294   0.018028
    40  H   -0.002638   0.017369  -0.085659  -0.020726   0.001120  -0.000070
    41  H   -0.000364  -0.000000   0.000715  -0.000046   0.000001  -0.000000
    42  H    0.000001  -0.000000   0.000000   0.000000   0.000000  -0.000000
              13         14         15         16         17         18
     1  C   -0.000000   0.000000  -0.000000   0.000000  -0.000000   0.000000
     2  C    0.000000  -0.000000   0.000000  -0.000000   0.000000  -0.000000
     3  C   -0.000000   0.000000  -0.000000   0.000000  -0.000000   0.000000
     4  C   -0.000000  -0.000000   0.000000   0.000000  -0.000000  -0.000000
     5  C    0.000000   0.000000  -0.000000  -0.000000   0.000000   0.000000
     6  C    0.000002  -0.000000  -0.000000   0.000000  -0.000000   0.000008
     7  C    0.000021   0.000007  -0.000000   0.000000  -0.000002  -0.000091
     8  C    0.025622  -0.000004   0.000002  -0.000002   0.000071  -0.003612
     9  C   -0.003863  -0.000111   0.000007  -0.000001   0.000003  -0.000387
    10  C    0.022261   0.001163  -0.000093   0.000007  -0.000004   0.000193
    11  C   -0.145831  -0.027661   0.000360   0.000011  -0.000367   0.025095
    12  C    0.243617  -0.148220   0.022188  -0.004478   0.026313   0.009428
    13  C    5.548034   0.248966   0.123331  -0.156183   0.046117   0.056391
    14  C    0.248966   5.441381   0.250284   0.145272  -0.175794   0.027104
    15  C    0.123331   0.250284   5.212635   0.155912   0.151161  -0.172353
    16  C   -0.156183   0.145272   0.155912   5.242323   0.196968   0.154218
    17  C    0.046117  -0.175794   0.151161   0.196968   5.465534   0.215897
    18  C    0.056391   0.027104  -0.172353   0.154218   0.215897   5.490726
    19  C    0.025083   0.028741  -0.002228   0.022167  -0.162379   0.175558
    20  C   -0.136207  -0.003785   0.000168  -0.001415   0.019382   0.151022
    21  C   -0.001596   0.019019   0.000430  -0.000039  -0.000665  -0.169835
    22  C    0.000082  -0.000002  -0.000000   0.000000  -0.000000   0.000002
    23  C   -0.000003   0.000000   0.000000  -0.000000   0.000000  -0.000001
    24  C   -0.000000  -0.000000   0.000000  -0.000000   0.000000   0.000000
    25  C    0.000000   0.000000  -0.000000   0.000000  -0.000000  -0.000000
    26  C   -0.000000  -0.000000   0.000000  -0.000000   0.000000  -0.000000
    27  H    0.000000  -0.000000   0.000000   0.000000   0.000000  -0.000000
    28  H   -0.000000   0.000000   0.000000   0.000000  -0.000000  -0.000000
    29  H   -0.000000   0.000000  -0.000000   0.000000   0.000000   0.000000
    30  H    0.000000   0.000000  -0.000000   0.000000  -0.000000   0.000000
    31  H    0.000031   0.000000   0.000000  -0.000000  -0.000000  -0.000066
    32  H   -0.000378   0.000006  -0.000001   0.000000  -0.000000   0.000010
    33  H   -0.039474   0.009085   0.001362  -0.000069   0.000038  -0.001005
    34  H   -0.048443   0.417383  -0.081635   0.015888  -0.001921   0.019580
    35  H    0.015805  -0.074578   0.436676  -0.086820   0.015665  -0.001735
    36  H   -0.001166   0.015146  -0.084790   0.436598  -0.078719   0.015690
    37  H    0.017042  -0.002344   0.016369  -0.083414   0.441503  -0.080775
    38  H    0.016442  -0.000329  -0.000067   0.001034  -0.020209  -0.090525
    39  H   -0.001688   0.000046  -0.000002   0.000016  -0.000619   0.017175
    40  H   -0.000001  -0.000000  -0.000000   0.000000  -0.000000   0.000000
    41  H   -0.000000  -0.000000   0.000000  -0.000000   0.000000  -0.000000
    42  H    0.000000   0.000000  -0.000000   0.000000  -0.000000  -0.000000
              19         20         21         22         23         24
     1  C   -0.000000  -0.000000   0.000000   0.000016  -0.001332   0.019772
     2  C    0.000000   0.000000  -0.000000  -0.000005   0.000301  -0.002260
     3  C   -0.000000  -0.000000   0.000000   0.000111  -0.001427   0.025515
     4  C    0.000000   0.000001  -0.000000  -0.001625  -0.136230   0.028687
     5  C   -0.000001  -0.000066  -0.000445   0.025251   0.032685  -0.145602
     6  C   -0.000118   0.000186   0.023097   0.034793  -0.061249   0.033453
     7  C    0.001010  -0.030598  -0.150376  -0.149828   0.025922   0.025311
     8  C    0.021937  -0.146599   0.219971   0.033995  -0.133762  -0.001231
     9  C    0.000282   0.025901   0.016166   0.229119   0.155836   0.020169
    10  C   -0.000081  -0.003683  -0.152094  -0.163071   0.022622  -0.001106
    11  C   -0.003467   0.027936   0.004842   0.020135  -0.001451   0.000018
    12  C   -0.147699  -0.002992   0.170136  -0.000642  -0.000132  -0.000005
    13  C    0.025083  -0.136207  -0.001596   0.000082  -0.000003  -0.000000
    14  C    0.028741  -0.003785   0.019019  -0.000002   0.000000  -0.000000
    15  C   -0.002228   0.000168   0.000430  -0.000000   0.000000   0.000000
    16  C    0.022167  -0.001415  -0.000039   0.000000  -0.000000  -0.000000
    17  C   -0.162379   0.019382  -0.000665  -0.000000   0.000000   0.000000
    18  C    0.175558   0.151022  -0.169835   0.000002  -0.000001   0.000000
    19  C    5.478716   0.225605   0.133083  -0.000001   0.000005  -0.000000
    20  C    0.225605   5.502812   0.197562  -0.000490   0.000075   0.000001
    21  C    0.133083   0.197562   5.601292   0.024528  -0.003465   0.000119
    22  C   -0.000001  -0.000490   0.024528   5.774204   0.180883  -0.167932
    23  C    0.000005   0.000075  -0.003465   0.180883   5.452942   0.206898
    24  C   -0.000000   0.000001   0.000119  -0.167932   0.206898   5.750191
    25  C   -0.000000  -0.000000  -0.000003   0.020896   0.146539   0.226448
    26  C    0.000000   0.000000   0.000000  -0.000947   0.018964  -0.159511
    27  H    0.000000   0.000000   0.000000  -0.000000   0.000009  -0.000493
    28  H    0.000000  -0.000000  -0.000000   0.000000  -0.000001   0.000044
    29  H   -0.000000  -0.000000   0.000000   0.000001  -0.000012  -0.000330
    30  H   -0.000000   0.000006  -0.000045  -0.000398   0.018657  -0.002293
    31  H    0.001413   0.012521  -0.039968  -0.002090   0.018845  -0.000460
    32  H   -0.000001   0.000049  -0.001840  -0.021431   0.001296  -0.000068
    33  H   -0.000052  -0.000285   0.017807  -0.000651   0.000017  -0.000000
    34  H   -0.000286  -0.000020  -0.001594  -0.000000  -0.000000  -0.000000
    35  H    0.000028  -0.000001   0.000007  -0.000000  -0.000000   0.000000
    36  H   -0.000558   0.000010  -0.000000  -0.000000   0.000000  -0.000000
    37  H   -0.022706   0.001103  -0.000071  -0.000000   0.000000  -0.000000
    38  H    0.442932  -0.076513   0.016963  -0.000000   0.000000   0.000000
    39  H   -0.079606   0.422069  -0.054182   0.000027  -0.000038   0.000000
    40  H   -0.000000   0.000011  -0.000170   0.443793  -0.084594  -0.020169
    41  H    0.000000   0.000000   0.000000  -0.020810  -0.082363   0.439500
    42  H    0.000000   0.000000   0.000000  -0.000046   0.000797  -0.021995
              25         26         27         28         29         30
     1  C    0.143260   0.228180   0.436326  -0.084907   0.015480  -0.000028
     2  C   -0.156953   0.146980  -0.084912   0.436392  -0.081018   0.000593
     3  C    0.045549  -0.176049   0.015121  -0.076721   0.437547  -0.018461
     4  C   -0.033032   0.045406  -0.001432   0.015778  -0.079090  -0.083253
     5  C    0.027884   0.025752   0.000044  -0.000494  -0.022028   0.436217
     6  C   -0.134102  -0.001621  -0.000001   0.000009   0.000778  -0.079811
     7  C   -0.001844   0.000108   0.000000  -0.000000  -0.000047  -0.021505
     8  C    0.000214  -0.000003   0.000000   0.000000   0.000000   0.000559
     9  C   -0.001443   0.000013  -0.000000   0.000000  -0.000000   0.000013
    10  C    0.000016  -0.000000  -0.000000   0.000000   0.000000   0.000001
    11  C   -0.000000  -0.000000   0.000000  -0.000000  -0.000000  -0.000000
    12  C    0.000000  -0.000000  -0.000000   0.000000   0.000000   0.000000
    13  C    0.000000  -0.000000   0.000000  -0.000000  -0.000000   0.000000
    14  C    0.000000  -0.000000  -0.000000   0.000000   0.000000   0.000000
    15  C   -0.000000   0.000000   0.000000   0.000000  -0.000000  -0.000000
    16  C    0.000000  -0.000000   0.000000   0.000000   0.000000   0.000000
    17  C   -0.000000   0.000000   0.000000  -0.000000   0.000000  -0.000000
    18  C   -0.000000  -0.000000  -0.000000  -0.000000   0.000000   0.000000
    19  C   -0.000000   0.000000   0.000000   0.000000  -0.000000  -0.000000
    20  C   -0.000000   0.000000   0.000000  -0.000000  -0.000000   0.000006
    21  C   -0.000003   0.000000   0.000000  -0.000000   0.000000  -0.000045
    22  C    0.020896  -0.000947  -0.000000   0.000000   0.000001  -0.000398
    23  C    0.146539   0.018964   0.000009  -0.000001  -0.000012   0.018657
    24  C    0.226448  -0.159511  -0.000493   0.000044  -0.000330  -0.002293
    25  C    5.429290   0.198088   0.015762  -0.001429   0.017558   0.017814
    26  C    0.198088   5.460568  -0.076687   0.015116  -0.002072  -0.000301
    27  H    0.015762  -0.076687   0.668851  -0.012402  -0.000315  -0.000001
    28  H   -0.001429   0.015116  -0.012402   0.668896  -0.012455  -0.000014
    29  H    0.017558  -0.002072  -0.000315  -0.012455   0.677197   0.007523
    30  H    0.017814  -0.000301  -0.000001  -0.000014   0.007523   0.684405
    31  H    0.000019   0.000001   0.000000  -0.000000  -0.000003   0.009409
    32  H    0.000000   0.000000  -0.000000  -0.000000  -0.000000   0.000000
    33  H   -0.000000  -0.000000  -0.000000   0.000000  -0.000000  -0.000000
    34  H    0.000000  -0.000000  -0.000000   0.000000   0.000000   0.000000
    35  H    0.000000  -0.000000   0.000000   0.000000   0.000000   0.000000
    36  H   -0.000000   0.000000   0.000000   0.000000  -0.000000   0.000000
    37  H   -0.000000   0.000000   0.000000  -0.000000   0.000000  -0.000000
    38  H    0.000000   0.000000   0.000000  -0.000000  -0.000000   0.000000
    39  H   -0.000000  -0.000000  -0.000000   0.000000   0.000000  -0.000025
    40  H    0.000690  -0.000040  -0.000000   0.000000   0.000000   0.000013
    41  H   -0.083877  -0.018519  -0.000014  -0.000001   0.000012   0.000035
    42  H   -0.079076   0.437675  -0.012443  -0.000316   0.000036   0.000012
              31         32         33         34         35         36
     1  C   -0.000000   0.000000   0.000000   0.000000   0.000000   0.000000
     2  C    0.000001   0.000000  -0.000000  -0.000000   0.000000   0.000000
     3  C   -0.000040   0.000000   0.000000   0.000000   0.000000  -0.000000
     4  C    0.000622  -0.000000   0.000000  -0.000000  -0.000000   0.000000
     5  C   -0.019494   0.000001   0.000000   0.000000   0.000000   0.000000
     6  C   -0.083784  -0.000013  -0.000002   0.000000  -0.000000  -0.000000
     7  C    0.415533  -0.000411   0.000051   0.000000   0.000000  -0.000000
     8  C   -0.052014   0.016335  -0.001677   0.000035  -0.000000   0.000000
     9  C    0.019875  -0.091308   0.017381  -0.000076   0.000000   0.000000
    10  C   -0.000319   0.444889  -0.077912   0.001531  -0.000001  -0.000000
    11  C   -0.000012  -0.077129   0.424704   0.011532   0.000002  -0.000000
    12  C   -0.001473   0.017065  -0.058576  -0.040963  -0.000262   0.000055
    13  C    0.000031  -0.000378  -0.039474  -0.048443   0.015805  -0.001166
    14  C    0.000000   0.000006   0.009085   0.417383  -0.074578   0.015146
    15  C    0.000000  -0.000001   0.001362  -0.081635   0.436676  -0.084790
    16  C   -0.000000   0.000000  -0.000069   0.015888  -0.086820   0.436598
[...]
 047466,-0.00054023,-0.00018812,0.00056145,-0.00006517,-0.00200705,-0.0
 0205675,0.00274601,0.00047405,-0.00040630,-0.00026815,-0.00003277,0.00
 019989,0.00003879,-0.00023328,0.00006205,-0.00001023,0.00136478,0.0017
 7269,-0.00135050,0.00278554,-0.00878192,-0.00357071,0.02022987,-0.1442
 9149,-0.15778131,-0.00056511,-0.00690108,-0.00104449,0.00161981,-0.003
 46266,0.00566535,-0.00001703,-0.00002548,-0.00003264,0.00000625,-0.000
 02651,0.00002613,-0.00000069,0.00001193,0.00000603,0.00000576,-0.00000
 446,-0.00000408,-0.00000298,0.00000904,0.00000835,0.00000273,-0.000000
 55,0.00000002,0.00000351,0.00000013,0.00000163,-0.00000049,0.00000181,
 0.00000358,-0.00000004,0.00000110,0.00000606,0.00000729,-0.00000906,-0
 .00000052,0.00001017,-0.00007640,0.00007134,-0.00001043,-0.00001719,0.
 00002136,-0.00014822,-0.00013820,0.00002382,-0.00002375,-0.00000059,0.
 00003971,-0.00003242,-0.00007964,0.00007721,-0.00057447,0.00018018,0.0
 0033654,-0.02264020,0.16005893,0.15872794,0.00000657,-0.00000880,-0.00
 000757,0.00000064,0.00001061,0.00000879,0.00001812,-0.00001227,-0.0000
 1125,-0.00003406,0.00001756,0.00001517,0.00006601,0.00000999,0.0000053
 6,-0.00000090,0.00011999,0.00009031,-0.00253410,0.00213311,0.00186014,
 -0.00144178,-0.00065455,-0.00057873,0.00014820,-0.00001474,-0.00001771
 ,0.00001418,-0.00000565,-0.00000845,0.00029054,0.00010883,0.00008926,0
 .00059091,0.00106274,0.00101791,0.00003986,0.00041957,0.00033227,0.000
 20041,-0.00002507,-0.00005297,-0.00003928,0.00015112,0.00013051,-0.000
 44034,0.00011122,0.00008304,-0.00034968,-0.00093135,-0.00075546,-0.003
 20559,0.00284923,0.00279244,-0.01995980,-0.01604445,-0.01239517,-0.231
 13254,-0.10898617,-0.08347825,0.00701860,0.00161840,0.00120913,-0.0000
 0424,-0.00006121,-0.00005030,-0.00009022,0.00000180,0.00000535,0.00003
 328,0.00002958,0.00002388,-0.00000792,-0.00002308,-0.00001838,0.000005
 89,0.00001242,0.00000995,0.00000409,-0.00000065,-0.00000065,0.00000583
 ,0.00000134,0.00000098,-0.00000113,0.00000329,0.00000297,-0.00000532,-
 0.00000742,-0.00000492,-0.00293250,0.00170157,0.00156139,-0.00000233,-
 0.00001200,-0.00000894,0.00000576,0.00006297,0.00004835,-0.00001972,-0
 .00002658,-0.00002011,-0.00001432,-0.00001209,-0.00000670,-0.00010787,
 -0.00006361,-0.00004921,0.00000015,0.00004585,0.00004515,0.00121768,0.
 00026952,-0.00001357,0.25264183,0.00000919,0.00000195,0.00000242,-0.00
 000797,-0.00001643,-0.00001402,-0.00001563,0.00000384,0.00001437,0.000
 01274,-0.00002185,-0.00000519,0.00001273,-0.00003895,-0.00001893,0.000
 35307,0.00041183,0.00054261,-0.00025124,-0.00077080,-0.00072951,-0.000
 99371,-0.00045536,0.00171329,-0.00000238,-0.00012866,-0.00009981,-0.00
 006058,-0.00001739,0.00006473,-0.00116727,-0.00007487,-0.00024114,0.00
 217578,-0.00093690,-0.00458100,0.00061522,-0.00024695,0.00009861,-0.00
 012485,-0.00024657,0.00039159,0.00004024,-0.00003071,-0.00012027,0.000
 13340,-0.00023367,0.00037973,0.00007345,0.00028520,0.00014981,0.001809
 80,0.00350850,-0.00467796,0.00875130,0.00853895,0.00230293,-0.10940559
 ,-0.11792542,-0.06188992,-0.01957503,-0.00686614,-0.00772443,-0.000025
 71,0.00012503,0.00009874,-0.00012749,0.00005262,0.00003210,0.00000233,
 0.00006100,0.00003738,0.00003153,0.00001950,0.00000437,-0.00000836,-0.
 00000486,-0.00000064,-0.00000449,0.00000137,0.00000060,-0.00000503,0.0
 0000030,-0.00000131,0.00000259,0.00000161,-0.00000374,0.00002134,0.000
 02690,-0.00000288,0.00146302,0.00123456,-0.00017808,0.00005130,0.00001
 363,-0.00001192,0.00006594,-0.00031186,-0.00017605,0.00002533,0.000022
 85,-0.00001058,-0.00001387,0.00003434,-0.00003709,0.00003447,0.0000148
 1,0.00001879,-0.00000859,0.00007377,-0.00010744,-0.00003146,-0.0016585
 9,0.00318656,0.11616846,0.11552882,0.00000733,0.00000305,0.00000091,-0
 .00000660,-0.00001468,-0.00001108,-0.00001403,0.00001425,-0.00000055,0
 .00001119,-0.00000536,-0.00002095,0.00000763,-0.00001884,-0.00003250,0
 .00028334,0.00055082,0.00018785,-0.00011456,-0.00081349,-0.00054896,-0
 .00085961,0.00170135,-0.00104248,-0.00000747,-0.00009938,-0.00009008,-
 0.00005395,0.00006280,-0.00003907,-0.00096759,-0.00028609,0.00006308,0
 .00193972,-0.00454180,0.00067207,0.00049430,0.00010550,-0.00032222,-0.
 00013561,0.00038807,-0.00038791,0.00003868,-0.00012418,0.00000859,0.00
 010141,0.00038051,-0.00038628,0.00007671,0.00018521,0.00025187,0.00193
 159,-0.00471457,0.00510730,0.00814051,0.00317629,0.00772996,-0.0838256
 2,-0.06190469,-0.08686027,-0.01634313,-0.00847091,-0.00314671,-0.00002
 090,0.00009999,0.00009045,-0.00010173,0.00002754,0.00004568,0.00000131
 ,0.00003642,0.00004588,0.00002684,0.00000629,0.00001715,-0.00000726,-0
 .00000137,-0.00000461,-0.00000383,0.00000046,0.00000136,-0.00000430,-0
 .00000154,0.00000097,0.00000240,-0.00000377,0.00000281,0.00001890,-0.0
 0000186,0.00002726,0.00136382,-0.00018648,0.00118488,0.00004347,-0.000
 00969,0.00001628,0.00005081,-0.00017595,-0.00024959,0.00002289,-0.0000
 0875,0.00002650,-0.00000818,-0.00003715,0.00004923,0.00003202,0.000022
 24,0.00000795,0.00000006,-0.00010936,0.00011329,-0.00026283,0.00317596
 ,-0.00286529,0.08816222,0.07158245,0.08033515,0.00004787,0.00001515,0.
 00001076,-0.00002464,-0.00005192,-0.00004282,-0.00006354,0.00004507,0.
 00004122,0.00021815,-0.00007322,-0.00007574,0.00046010,-0.00092969,-0.
 00078145,-0.00411466,-0.00127056,-0.00073063,-0.00076323,-0.00011873,-
 0.00008744,-0.00458701,0.00014295,0.00050919,0.00084999,0.02186228,0.0
 1824267,0.00100865,0.00174822,0.00124329,0.00014958,-0.00032873,-0.000
 27769,0.00017104,0.00019218,0.00014639,0.00001229,-0.00011525,-0.00009
 407,-0.00001918,0.00002957,0.00002490,-0.00000138,-0.00000927,-0.00000
 774,-0.00001204,0.00000608,0.00000537,-0.00000168,-0.00001451,-0.00001
 203,0.00001656,0.00001290,0.00001023,0.00000973,0.00008140,0.00006738,
 -0.00040675,-0.00003500,-0.00000714,0.00034470,0.00106534,0.00087799,-
 0.05974590,0.01724863,0.01510106,0.00561983,-0.01973880,-0.01639562,0.
 00134206,-0.00108957,-0.00106333,0.00015389,0.00035471,0.00028205,-0.0
 0005554,-0.00001381,-0.00000233,0.00000326,0.00000403,0.00000257,-0.00
 000102,0.00000492,0.00000409,0.00001146,0.00001764,0.00001483,-0.00029
 553,-0.00018406,-0.00013258,0.00005036,0.00004004,-0.00000763,-0.00047
 539,-0.00070379,-0.00055924,-0.00000407,-0.00001230,0.00000187,-0.0000
 0622,-0.00001015,-0.00000801,-0.00000457,0.00000003,0.00000029,-0.0000
 0136,-0.00000107,-0.00000079,0.00000233,-0.00000073,-0.00000069,-0.000
 04016,0.00001510,0.00001176,0.00001943,-0.00000151,-0.00000156,0.06056
 153,-0.00001796,-0.00006066,-0.00004730,-0.00008669,-0.00000362,0.0000
 1623,0.00002249,0.00009479,0.00003873,-0.00000419,0.00002071,0.0001916
 7,0.00059849,-0.00040705,-0.00046915,-0.00275770,0.00230357,-0.0021500
 8,-0.00008805,0.00019803,0.00054305,0.00153827,0.00343777,-0.00259707,
 -0.00036081,-0.00396810,-0.00718638,-0.00173594,-0.00156851,0.00273709
 ,0.00028151,0.00007838,0.00005898,-0.00006525,0.00002257,0.00017961,0.
 00001775,0.00006096,0.00000724,0.00000789,-0.00002526,-0.00001503,0.00
 000553,-0.00000808,-0.00000412,0.00001917,-0.00000101,0.00000059,-0.00
 000416,0.00001409,0.00001353,0.00001737,0.00000865,0.00000362,-0.00002
 733,-0.00002316,-0.00002535,0.00017558,0.00009395,-0.00010517,-0.00039
 101,-0.00025743,-0.00038337,0.01774788,-0.21002604,-0.14426969,0.00269
 836,-0.00713704,-0.00952989,0.00168837,-0.00083971,0.00191831,-0.00030
 478,0.00004120,0.00019281,0.00006067,0.00003258,-0.00014329,-0.0000112
 3,-0.00000689,0.00000992,-0.00000765,0.00000178,0.00000218,0.00001715,
 0.00000768,-0.00000890,-0.00017560,0.00000228,-0.00021399,0.00002413,-
 0.00054296,0.00046683,0.00053750,0.00042501,0.00017095,0.00004835,0.00
 012444,-0.00017886,0.00000310,0.00000536,0.00000006,0.00000594,0.00000
 234,-0.00000061,0.00000330,0.00000024,-0.00000096,-0.00000131,-0.00000
 280,-0.00000225,0.00001979,-0.00003313,0.00002274,-0.00001526,0.000012
 07,0.00000156,-0.01876050,0.21754565,-0.00001666,-0.00004846,-0.000042
 34,-0.00007162,0.00001501,-0.00000458,0.00002252,0.00003793,0.00007770
 ,-0.00001857,0.00019410,-0.00004914,0.00048418,-0.00041533,-0.00022706
 ,-0.00196227,-0.00220246,0.00326201,-0.00006203,0.00054413,-0.00000110
 ,0.00166478,-0.00254792,0.00433936,-0.00016236,-0.00796913,-0.00186985
 ,-0.00164228,0.00261437,-0.00257653,0.00022771,0.00008047,0.00005382,-
 0.00006681,0.00017055,-0.00004793,0.00001608,0.00001193,0.00006078,0.0
 0000695,-0.00001579,-0.00002077,0.00000451,-0.00000360,-0.00000648,0.0
 0001622,0.00000105,-0.00000223,-0.00000346,0.00001390,0.00000956,0.000
 01393,0.00000378,0.00000618,-0.00002267,-0.00002918,-0.00001475,0.0001
 6726,-0.00009775,0.00012662,-0.00032815,-0.00043467,-0.00012633,0.0155
 1454,-0.14425211,-0.15659798,0.00218669,-0.00873960,-0.00306007,0.0012
 3733,0.00201616,-0.00160159,-0.00026413,0.00016959,-0.00002890,0.00005
 935,-0.00014067,0.00008443,-0.00001006,0.00000938,-0.00001027,-0.00000
 632,0.00000173,0.00000114,0.00001442,-0.00000892,0.00000981,-0.0001255
 7,-0.00021369,0.00009558,-0.00002080,0.00046627,-0.00072077,0.00046880
 ,0.00021467,0.00035702,0.00005210,-0.00017673,0.00019015,0.00000297,0.
 00000053,0.00000549,0.00000518,-0.00000040,0.00000231,0.00000283,-0.00
 000081,0.00000049,-0.00000117,-0.00000228,-0.00000186,0.00001564,0.000
 02291,-0.00004301,-0.00001294,0.00000108,0.00001218,-0.01680923,0.1605
 8077,0.15803479,0.00016491,0.00034838,0.00028063,0.00016602,-0.0001350
 2,-0.00012601,0.00044357,-0.00088640,-0.00074568,-0.00396141,-0.001338
 17,-0.00074984,-0.00076093,-0.00010705,-0.00008080,-0.00477313,0.00010
 947,0.00045194,0.00032689,0.00108771,0.00089473,0.00020411,0.00010502,
 0.00007193,0.00016807,-0.00034030,-0.00029391,-0.00002789,0.00000736,0
 .00001614,0.00002990,0.00000735,0.00000483,-0.00004334,0.00005121,0.00
 004424,0.00001330,-0.00002044,-0.00001735,-0.00000835,0.00000624,0.000
 00546,0.00000340,-0.00000140,-0.00000132,-0.00000676,0.00000454,0.0000
 0400,-0.00000228,-0.00000594,-0.00000487,-0.00000731,0.00001146,0.0000
 0933,-0.00001990,-0.00002631,-0.00002107,0.00000766,0.00002221,0.00001
 792,-0.00001019,-0.00006912,-0.00005491,0.00138447,0.00137272,0.000961
 70,0.00092677,0.02196735,0.01831071,-0.06055496,0.02023757,0.01760912,
 0.00595182,-0.01953372,-0.01622394,0.00116362,-0.00120704,-0.00119122,
 0.00001654,0.00000722,0.00001554,-0.00002309,0.00004043,0.00003607,-0.
 00030052,-0.00017544,-0.00012576,0.00004906,0.00003791,-0.00001027,-0.
 00036286,0.00012707,0.00012760,-0.00002849,-0.00001983,-0.00001532,0.0
 0000047,-0.00000149,-0.00000250,-0.00000248,-0.00000286,-0.00000223,-0
 .00000148,-0.00000027,-0.00000015,-0.00000041,-0.00000032,-0.00000023,
 0.00000026,0.00000023,0.00000020,0.00000107,0.00000041,0.00000048,-0.0
 0000491,-0.00002243,-0.00001841,-0.00040040,-0.00070935,-0.00056652,0.
 06067459,-0.00021953,0.00000989,0.00006490,-0.00003380,0.00001820,0.00
 021236,0.00058630,-0.00041404,-0.00045908,-0.00277841,0.00279275,-0.00
 273621,-0.00010489,0.00014807,0.00057161,0.00155093,0.00304957,-0.0020
 7085,-0.00040081,-0.00030162,-0.00036277,0.00000478,0.00004492,0.00022
 190,0.00030131,0.00001416,0.00014594,-0.00005298,0.00004304,-0.0001756
 3,0.00004362,-0.00003940,-0.00002927,0.00002769,0.00001796,0.00000680,
 0.00000222,0.00000441,0.00000237,0.00000176,-0.00001093,-0.00000899,0.
 00000302,-0.00000617,-0.00000432,0.00001252,0.00000052,-0.00000016,-0.
 00000243,0.00000894,0.00000817,0.00001515,-0.00000621,0.00000419,-0.00
 000375,0.00001024,0.00000823,0.00000931,-0.00001305,-0.00000616,-0.000
 04126,0.00006901,0.00001232,-0.00145592,-0.00105082,0.00215346,-0.0004
 5388,-0.00371077,-0.00658728,0.02011272,-0.20944733,-0.14397106,0.0027
 9707,-0.00731980,-0.01000292,0.00182155,-0.00124972,0.00244133,-0.0000
 5088,0.00010267,-0.00015164,-0.00003104,0.00004495,-0.00000325,-0.0001
 8279,0.00000151,-0.00020298,0.00003828,-0.00055867,0.00047493,0.000119
 58,0.00006219,-0.00017799,0.00000695,0.00001432,0.00000931,0.00001095,
 -0.00001370,0.00001763,-0.00000178,0.00000225,0.00000077,0.00000391,0.
 00000139,0.00000059,0.00000287,-0.00000022,-0.00000090,-0.00000017,-0.
 00000208,-0.00000221,0.00000142,-0.00000085,-0.00000493,-0.00000101,0.
 00000948,0.00000796,0.00056773,0.00036288,0.00011933,-0.02150900,0.216
 94065,-0.00018971,0.00004490,-0.00001527,-0.00004218,0.00021593,-0.000
 05646,0.00047400,-0.00040721,-0.00023861,-0.00194263,-0.00278694,0.003
 97504,-0.00007900,0.00057169,-0.00006141,0.00164575,-0.00202008,0.0037
 5306,-0.00033806,-0.00041520,-0.00017851,-0.00001109,0.00021837,-0.000
 04197,0.00023747,0.00016854,-0.00004365,-0.00003383,-0.00017775,0.0001
 1134,0.00003486,-0.00002799,-0.00003032,0.00002476,0.00000598,0.000012
 65,0.00000142,0.00000316,0.00000403,0.00000175,-0.00000915,-0.00000779
 ,0.00000235,-0.00000416,-0.00000462,0.00001061,0.00000012,-0.00000010,
 -0.00000196,0.00000829,0.00000612,0.00001238,0.00000432,-0.00000877,-0
 .00000239,0.00000902,0.00000802,0.00000723,-0.00000661,-0.00001174,-0.
 00003184,0.00001330,0.00006802,-0.00138097,0.00205383,-0.00183948,-0.0
 0025842,-0.00737700,-0.00183817,0.01750572,-0.14397545,-0.15632144,0.0
 0227029,-0.00921638,-0.00307367,0.00131704,0.00254801,-0.00221112,-0.0
 0003258,-0.00015368,0.00016179,-0.00002312,-0.00000577,0.00004624,-0.0
 0013184,-0.00020324,0.00009069,-0.00000996,0.00047494,-0.00074006,0.00
 012140,-0.00017825,0.00012011,0.00000686,0.00001026,0.00001103,0.00000
 780,0.00001807,-0.00002076,-0.00000134,0.00000081,0.00000212,0.0000033
 1,0.00000073,0.00000100,0.00000242,-0.00000079,0.00000001,-0.00000013,
 -0.00000222,-0.00000125,0.00000131,-0.00000490,0.00000094,-0.00000066,
 0.00000872,0.00000715,0.00049115,0.00016431,0.00031344,-0.01909447,0.1
 6029321,0.15773623,0.00663237,-0.02073683,-0.01722925,-0.00376390,-0.0
 0167247,-0.00095211,-0.00074291,-0.00014207,-0.00011109,-0.00487975,0.
 00014995,0.00044740,0.00033919,0.00113067,0.00092949,0.00020037,0.0000
 6147,0.00003693,-0.00004246,-0.00005358,-0.00004158,-0.00002888,0.0000
 1908,0.00001634,0.00003311,0.00000022,-0.00000094,0.00000118,-0.000001
 13,-0.00000157,0.00001397,0.00000766,0.00000573,-0.00001438,0.00001533
 ,0.00001318,0.00000443,-0.00000541,-0.00000463,-0.00000184,0.00000121,
 0.00000104,0.00000181,0.00000022,0.00000009,-0.00000240,0.00000147,0.0
 0000128,0.00000015,-0.00000064,-0.00000056,-0.00000305,0.00000222,0.00
 000193,-0.00000461,-0.00000478,-0.00000384,0.00000292,-0.00000047,-0.0
 0000055,0.00000202,-0.00000628,-0.00000530,-0.00003848,0.00001538,0.00
 001893,0.00016042,-0.00034512,-0.00029779,0.00142425,0.00130417,0.0009
 3976,0.00064459,0.02179298,0.01815550,-0.06071476,0.02116946,0.0183533
 4,0.00118048,0.00048470,0.00016348,0.00015460,-0.00094021,-0.00077740,
 0.00010871,0.00003363,-0.00001780,-0.00038094,0.00012921,0.00012941,0.
 00001832,-0.00001517,-0.00001264,-0.00000344,-0.00000224,-0.00000161,-
 0.00000025,-0.00000080,-0.00000047,-0.00000109,-0.00000073,-0.00000054
 ,-0.00000006,0.00000007,0.00000008,0.00000040,-0.00000020,-0.00000017,
 -0.00000015,-0.00000013,-0.00000008,0.00000035,-0.00000012,-0.00000006
 ,0.00000056,-0.00000003,0.00000002,-0.00002854,-0.00001383,-0.00001037
 ,-0.00039542,-0.00071731,-0.00057370,0.06012310,0.00364114,-0.00665343
 ,-0.00983498,-0.00300508,0.00358249,-0.00399157,0.00000156,0.00021472,
 0.00063853,0.00151576,0.00248701,-0.00155217,-0.00041072,-0.00028960,-
 0.00034341,-0.00000172,0.00003499,0.00019180,-0.00004473,0.00007062,0.
 00002956,0.00005556,0.00002421,0.00002940,0.00005275,-0.00002142,-0.00
 002046,-0.00002286,-0.00003509,-0.00001438,0.00002469,-0.00001334,-0.0
 0000898,0.00000996,0.00001165,0.00000985,-0.00000381,-0.00000079,-0.00
 000062,0.00000203,-0.00000724,-0.00000536,0.00000259,-0.00000417,-0.00
 000298,0.00000860,0.00000046,0.00000050,-0.00000198,0.00000656,0.00000
 590,0.00000834,-0.00000127,-0.00000116,-0.00000431,-0.00000033,0.00000
 101,0.00001591,-0.00000412,-0.00000251,-0.00002965,0.00001909,0.000017
 54,-0.00007282,-0.00001650,-0.00012481,0.00032024,0.00007594,0.0001999
 6,-0.00140502,-0.00064174,0.00163857,-0.00072122,-0.00377339,-0.006142
 24,0.02080079,-0.21111810,-0.14459858,0.00000379,-0.00168850,0.0032187
 5,0.00019319,-0.00036558,-0.00046759,0.00004569,-0.00054796,0.00052808
 ,0.00012101,0.00005890,-0.00016675,-0.00001718,0.00000186,-0.00001124,
 0.00000092,0.00000737,0.00000309,0.00000536,0.00000278,-0.00000216,-0.
 00000264,0.00000101,0.00000021,0.00000321,0.00000134,0.00000050,0.0000
 0270,-0.00000049,-0.00000085,-0.00000010,-0.00000192,-0.00000201,0.000
 00154,-0.00000183,-0.00000258,-0.00000320,0.00000305,0.00000117,0.0000
 0920,0.00001447,0.00000988,0.00056006,0.00037142,0.00013627,-0.0216595
 4,0.21819686,0.00296043,-0.00897633,-0.00247148,-0.00205577,-0.0040385
 1,0.00525765,0.00000786,0.00064359,-0.00002360,0.00157856,-0.00150406,
 0.00299546,-0.00034708,-0.00039770,-0.00017463,-0.00001541,0.00018957,
 -0.00003898,-0.00003425,0.00002987,0.00006278,0.00004655,0.00003068,0.
 00001012,0.00004256,-0.00001861,-0.00001587,-0.00001957,-0.00001514,-0
 .00002861,0.00001983,-0.00000838,-0.00001118,0.00000873,0.00000966,0.0
 0000702,-0.00000331,-0.00000056,-0.00000023,0.00000171,-0.00000533,-0.
 00000533,0.00000206,-0.00000290,-0.00000316,0.00000719,0.00000076,-0.0
 0000015,-0.00000166,0.00000585,0.00000443,0.00000700,-0.00000094,-0.00
 000126,-0.00000346,0.00000103,-0.00000039,0.00001301,-0.00000193,-0.00
 000382,-0.00002465,0.00001671,0.00001389,-0.00005412,-0.00012792,0.000
 03326,0.00025326,0.00022340,-0.00000303,-0.00130398,0.00154315,-0.0012
 3651,-0.00049062,-0.00693524,-0.00205273,0.01804802,-0.14461157,-0.157
 80970,-0.00023481,0.00320181,-0.00291515,0.00016127,-0.00042767,-0.000
 16908,-0.00000782,0.00052850,-0.00074955,0.00012262,-0.00016704,0.0001
 1244,-0.00001430,-0.00001131,0.00000730,0.00000101,0.00000320,0.000006
 22,0.00000463,-0.00000194,0.00000339,-0.00000211,0.00000014,0.00000106
 ,0.00000268,0.00000061,0.00000101,0.00000224,-0.00000075,-0.00000028,-
 0.00000006,-0.00000201,-0.00000115,0.00000131,-0.00000253,-0.00000091,
 -0.00000261,0.00000106,0.00000274,0.00000870,0.00001070,0.00001069,0.0
 0048421,0.00018126,0.00031613,-0.01916986,0.16063680,0.15887119\\0.000
 04701,0.00002148,0.00001614,0.00005552,-0.00001267,-0.00001244,-0.0000
 1102,-0.00004913,-0.00004030,-0.00004868,0.00020834,0.00017426,0.00000
 435,-0.00015395,-0.00012765,0.00003298,0.00025056,0.00020635,0.0000419
 7,-0.00004345,-0.00003746,-0.00001841,0.00004902,0.00004125,0.00009791
 ,-0.00018502,-0.00015668,-0.00009108,0.00003674,0.00003364,0.00004108,
 -0.00002008,-0.00001808,-0.00000028,0.00002115,0.00001752,0.00003797,-
 0.00001006,-0.00000967,-0.00000772,-0.00000656,-0.00000516,-0.00004062
 ,-0.00000746,-0.00000475,-0.00001084,-0.00000032,0.00000011,0.00001917
 ,-0.00007225,-0.00006051,-0.00006108,0.00011008,0.00009331,0.00004382,
 -0.00003256,-0.00002851,-0.00002765,0.00001157,0.00001055,-0.00006769,
 0.00000050,0.00000280,-0.00002602,0.00015127,0.00012620,0.00006291,-0.
 00024619,-0.00020611,-0.00003362,0.00014682,0.00012278,-0.00001169,-0.
 00021098,-0.00017432,-0.00001757,0.00004298,0.00003621,-0.00002312,-0.
 00001503,-0.00001164,-0.00002654,0.00000863,0.00000808,-0.00001415,0.0
 0000977,0.00000859,-0.00000282,0.00002600,0.00002163,0.00002113,0.0000
 0390,0.00000249,0.00001873,-0.00000781,-0.00000713,0.00000633,0.000002
 98,0.00000224,0.00001168,0.00000479,0.00000355,0.00000763,0.00000950,0
 .00000760,0.00001864,0.00000345,0.00000220,0.00002030,0.00001409,0.000
 01095,-0.00002613,0.00000849,0.00000796,-0.00001563,-0.00000369,-0.000
 00251,-0.00000165,-0.00002722,-0.00002248,0.00000547,-0.00002529,-0.00
 002114,-0.00001060,-0.00001237,-0.00000987\\\@
 The archive entry for this job was punched.


 NATURE WILL TELL YOU A DIRECT LIE IF SHE CAN.

                                -- CHARLES DARWIN
 Job cpu time:       0 days  1 hours 21 minutes 13.0 seconds.
 Elapsed time:       0 days  0 hours 10 minutes  9.2 seconds.
 File lengths (MBytes):  RWF=    772 Int=      0 D2E=      0 Chk=     15 Scr=      1
 Normal termination of Gaussian 16 at Tue Oct  8 21:00:55 2024.
