 Entering Gaussian System, Link 0=g16
 Initial command:
 /home/software/g16/l1.exe "/home/software/g16/scr/Gau-266821.inp" -scrdir="/home/software/g16/scr/"
 Default is to use a total of   8 processors:
                                8 via shared-memory
                                1 via Linda
 Entering Link 1 = /home/software/g16/l1.exe PID=    266822.
  
 Copyright (c) 1988-2019, Gaussian, Inc.  All Rights Reserved.
  
 This is part of the Gaussian(R) 16 program.  It is based on
 the Gaussian(R) 09 system (copyright 2009, Gaussian, Inc.),
 the Gaussian(R) 03 system (copyright 2003, Gaussian, Inc.),
 the Gaussian(R) 98 system (copyright 1998, Gaussian, Inc.),
 the Gaussian(R) 94 system (copyright 1995, Gaussian, Inc.),
 the Gaussian 92(TM) system (copyright 1992, Gaussian, Inc.),
 the Gaussian 90(TM) system (copyright 1990, Gaussian, Inc.),
 the Gaussian 88(TM) system (copyright 1988, Gaussian, Inc.),
 the Gaussian 86(TM) system (copyright 1986, Carnegie Mellon
 University), and the Gaussian 82(TM) system (copyright 1983,
 Carnegie Mellon University). Gaussian is a federally registered
 trademark of Gaussian, Inc.
  
 This software contains proprietary and confidential information,
 including trade secrets, belonging to Gaussian, Inc.
  
 This software is provided under written license and may be
 used, copied, transmitted, or stored only in accord with that
 written license.
  
 The following legend is applicable only to US Government
 contracts under FAR:
  
                    RESTRICTED RIGHTS LEGEND
  
 Use, reproduction and disclosure by the US Government is
 subject to restrictions as set forth in subparagraphs (a)
 and (c) of the Commercial Computer Software - Restricted
 Rights clause in FAR 52.227-19.
  
 Gaussian, Inc.
 340 Quinnipiac St., Bldg. 40, Wallingford CT 06492
  
  
 ---------------------------------------------------------------
 Warning -- This program may not be used in any manner that
 competes with the business of Gaussian, Inc. or will provide
 assistance to any competitor of Gaussian, Inc.  The licensee
 of this program is prohibited from giving any competitor of
 Gaussian, Inc. access to this program.  By using this program,
 the user acknowledges that Gaussian, Inc. is engaged in the
 business of creating and licensing software in the field of
 computational chemistry and represents and warrants to the
 licensee that it is not a competitor of Gaussian, Inc. and that
 it will not use this program in any manner prohibited above.
 ---------------------------------------------------------------
  

 Cite this work as:
 Gaussian 16, Revision C.01,
 M. J. Frisch, G. W. Trucks, H. B. Schlegel, G. E. Scuseria, 
 M. A. Robb, J. R. Cheeseman, G. Scalmani, V. Barone, 
 G. A. Petersson, H. Nakatsuji, X. Li, M. Caricato, A. V. Marenich, 
 J. Bloino, B. G. Janesko, R. Gomperts, B. Mennucci, H. P. Hratchian, 
 J. V. Ortiz, A. F. Izmaylov, J. L. Sonnenberg, D. Williams-Young, 
 F. Ding, F. Lipparini, F. Egidi, J. Goings, B. Peng, A. Petrone, 
 T. Henderson, D. Ranasinghe, V. G. Zakrzewski, J. Gao, N. Rega, 
 G. Zheng, W. Liang, M. Hada, M. Ehara, K. Toyota, R. Fukuda, 
 J. Hasegawa, M. Ishida, T. Nakajima, Y. Honda, O. Kitao, H. Nakai, 
 T. Vreven, K. Throssell, J. A. Montgomery, Jr., J. E. Peralta, 
 F. Ogliaro, M. J. Bearpark, J. J. Heyd, E. N. Brothers, K. N. Kudin, 
 V. N. Staroverov, T. A. Keith, R. Kobayashi, J. Normand, 
 K. Raghavachari, A. P. Rendell, J. C. Burant, S. S. Iyengar, 
 J. Tomasi, M. Cossi, J. M. Millam, M. Klene, C. Adamo, R. Cammi, 
 J. W. Ochterski, R. L. Martin, K. Morokuma, O. Farkas, 
 J. B. Foresman, and D. J. Fox, Gaussian, Inc., Wallingford CT, 2019.
 
 ******************************************
 Gaussian 16:  ES64L-G16RevC.01  3-Jul-2019
                11-Mar-2024 
 ******************************************
 %nprocshared=16
 Will use up to   16 processors via shared memory.
 %mem=6400MB
 ----------------------------------------------------------------------
 #N opt freq B3LYP/def2SVPP symm=veryloose em=gd3bj scale=0.961 press=0
 .987
 ----------------------------------------------------------------------
 1/18=20,19=15,26=3,38=1,113=-987000,114=961000/1,3;
 2/9=110,12=2,17=2,18=2,40=1/2;
 3/5=43,7=202,11=2,25=1,30=1,71=1,74=-5,124=41/1,2,3;
 4//1;
 5/5=2,38=5/2;
 6/7=2,8=2,9=2,10=2,28=1/1;
 7//1,2,3,16;
 1/18=20,19=15,26=3/3(2);
 2/9=110/2;
 99//99;
 2/9=110/2;
 3/5=43,7=202,11=2,25=1,30=1,71=1,74=-5,124=41/1,2,3;
 4/5=5,16=3,69=1/1;
 5/5=2,38=5/2;
 7//1,2,3,16;
 1/18=20,19=15,26=3/3(-5);
 2/9=110/2;
 6/7=2,8=2,9=2,10=2,19=2,28=1/1;
 99/9=1/99;
 ------------------------------------
 c1cc2cccc3c4cccc5cccc(c(c1)c23)c54_1
 ------------------------------------
 Symbolic Z-matrix:
 Charge =  0 Multiplicity = 1
 C                    -2.882     2.3466   -0.43277 
 C                    -3.55328   1.15262  -0.21356 
 C                    -2.8369   -0.02706   0.01888 
 C                    -3.522    -1.21723   0.27542 
 C                    -2.82225  -2.40137   0.46167 
 C                    -1.43562  -2.41296   0.32425 
 C                    -0.69576  -1.2328    0.07314 
 C                     0.72035  -1.21741  -0.08764 
 C                     1.48953  -2.37957  -0.33691 
 C                     2.87831  -2.34135  -0.43175 
 C                     3.54893  -1.14491  -0.21725 
 C                     2.83327   0.03009   0.01438 
 C                     3.51889   1.22578   0.26559 
 C                     2.81883   2.40895   0.45411 
 C                     1.43221   2.41707   0.31927 
 C                     0.69316   1.23498   0.07266 
 C                    -0.72389   1.21902  -0.09224 
 C                    -1.49248   2.38306  -0.33819 
 C                    -1.41115  -0.01345  -0.00081 
 C                     1.40578   0.01505  -0.0009 
 H                    -3.43681   3.2524   -0.66243 
 H                    -4.63975   1.14477  -0.24918 
 H                    -4.60711  -1.22853   0.35637 
 H                    -3.35314  -3.31674   0.708 
 H                    -0.929    -3.36339   0.4749 
 H                     1.00392  -3.33721  -0.50875 
 H                     3.4342   -3.24597  -0.66321 
 H                     4.63442  -1.13754  -0.25031 
 H                     4.60389   1.23903   0.33991 
 H                     3.34836   3.32626   0.69553 
 H                     0.92366   3.36583   0.47183 
 H                    -1.007     3.34063  -0.50853 
 

 GradGradGradGradGradGradGradGradGradGradGradGradGradGradGradGradGradGrad
 Berny optimization.
 Initialization pass.
                           ----------------------------
                           !    Initial Parameters    !
                           ! (Angstroms and Degrees)  !
 --------------------------                            --------------------------
 ! Name  Definition              Value          Derivative Info.                !
 --------------------------------------------------------------------------------
 ! R1    R(1,2)                  1.3872         estimate D2E/DX2                !
 ! R2    R(1,18)                 1.3932         estimate D2E/DX2                !
 ! R3    R(1,21)                 1.0868         estimate D2E/DX2                !
 ! R4    R(2,3)                  1.3996         estimate D2E/DX2                !
 ! R5    R(2,22)                 1.0871         estimate D2E/DX2                !
 ! R6    R(3,4)                  1.397          estimate D2E/DX2                !
 ! R7    R(3,19)                 1.426          estimate D2E/DX2                !
 ! R8    R(4,5)                  1.388          estimate D2E/DX2                !
 ! R9    R(4,23)                 1.0882         estimate D2E/DX2                !
 ! R10   R(5,6)                  1.3935         estimate D2E/DX2                !
 ! R11   R(5,24)                 1.0865         estimate D2E/DX2                !
 ! R12   R(6,7)                  1.4154         estimate D2E/DX2                !
 ! R13   R(6,25)                 1.0875         estimate D2E/DX2                !
 ! R14   R(7,8)                  1.4253         estimate D2E/DX2                !
 ! R15   R(7,19)                 1.4157         estimate D2E/DX2                !
 ! R16   R(8,9)                  1.4158         estimate D2E/DX2                !
 ! R17   R(8,20)                 1.4129         estimate D2E/DX2                !
 ! R18   R(9,10)                 1.3925         estimate D2E/DX2                !
 ! R19   R(9,26)                 1.0874         estimate D2E/DX2                !
 ! R20   R(10,11)                1.3882         estimate D2E/DX2                !
 ! R21   R(10,27)                1.0867         estimate D2E/DX2                !
 ! R22   R(11,12)                1.3952         estimate D2E/DX2                !
 ! R23   R(11,28)                1.086          estimate D2E/DX2                !
 ! R24   R(12,13)                1.401          estimate D2E/DX2                !
 ! R25   R(12,20)                1.4277         estimate D2E/DX2                !
 ! R26   R(13,14)                1.3876         estimate D2E/DX2                !
 ! R27   R(13,29)                1.0876         estimate D2E/DX2                !
 ! R28   R(14,15)                1.3932         estimate D2E/DX2                !
 ! R29   R(14,30)                1.0863         estimate D2E/DX2                !
 ! R30   R(15,16)                1.4158         estimate D2E/DX2                !
 ! R31   R(15,31)                1.0872         estimate D2E/DX2                !
 ! R32   R(16,17)                1.4267         estimate D2E/DX2                !
 ! R33   R(16,20)                1.4147         estimate D2E/DX2                !
 ! R34   R(17,18)                1.4164         estimate D2E/DX2                !
 ! R35   R(17,19)                1.4141         estimate D2E/DX2                !
 ! R36   R(18,32)                1.087          estimate D2E/DX2                !
 ! A1    A(2,1,18)             119.6324         estimate D2E/DX2                !
 ! A2    A(2,1,21)             120.2487         estimate D2E/DX2                !
 ! A3    A(18,1,21)            120.1127         estimate D2E/DX2                !
 ! A4    A(1,2,3)              120.2672         estimate D2E/DX2                !
 ! A5    A(1,2,22)             118.9917         estimate D2E/DX2                !
 ! A6    A(3,2,22)             120.7247         estimate D2E/DX2                !
 ! A7    A(2,3,4)              119.8384         estimate D2E/DX2                !
 ! A8    A(2,3,19)             120.0951         estimate D2E/DX2                !
 ! A9    A(4,3,19)             120.066          estimate D2E/DX2                !
 ! A10   A(3,4,5)              120.2794         estimate D2E/DX2                !
 ! A11   A(3,4,23)             120.7652         estimate D2E/DX2                !
 ! A12   A(5,4,23)             118.9391         estimate D2E/DX2                !
 ! A13   A(4,5,6)              119.7049         estimate D2E/DX2                !
 ! A14   A(4,5,24)             120.1891         estimate D2E/DX2                !
 ! A15   A(6,5,24)             120.1051         estimate D2E/DX2                !
 ! A16   A(5,6,7)              122.055          estimate D2E/DX2                !
 ! A17   A(5,6,25)             117.2049         estimate D2E/DX2                !
 ! A18   A(7,6,25)             120.6493         estimate D2E/DX2                !
 ! A19   A(6,7,8)              123.2565         estimate D2E/DX2                !
 ! A20   A(6,7,19)             117.6009         estimate D2E/DX2                !
 ! A21   A(8,7,19)             119.1367         estimate D2E/DX2                !
 ! A22   A(7,8,9)              123.4215         estimate D2E/DX2                !
 ! A23   A(7,8,20)             118.9791         estimate D2E/DX2                !
 ! A24   A(9,8,20)             117.599          estimate D2E/DX2                !
 ! A25   A(8,9,10)             122.0927         estimate D2E/DX2                !
 ! A26   A(8,9,26)             120.5386         estimate D2E/DX2                !
 ! A27   A(10,9,26)            117.3088         estimate D2E/DX2                !
 ! A28   A(9,10,11)            119.6631         estimate D2E/DX2                !
 ! A29   A(9,10,27)            120.1202         estimate D2E/DX2                !
 ! A30   A(11,10,27)           120.2142         estimate D2E/DX2                !
 ! A31   A(10,11,12)           120.245          estimate D2E/DX2                !
 ! A32   A(10,11,28)           118.9458         estimate D2E/DX2                !
 ! A33   A(12,11,28)           120.8006         estimate D2E/DX2                !
 ! A34   A(11,12,13)           119.8355         estimate D2E/DX2                !
 ! A35   A(11,12,20)           120.1493         estimate D2E/DX2                !
 ! A36   A(13,12,20)           120.015          estimate D2E/DX2                !
 ! A37   A(12,13,14)           120.3423         estimate D2E/DX2                !
 ! A38   A(12,13,29)           120.7199         estimate D2E/DX2                !
 ! A39   A(14,13,29)           118.9216         estimate D2E/DX2                !
 ! A40   A(13,14,15)           119.6002         estimate D2E/DX2                !
 ! A41   A(13,14,30)           120.2823         estimate D2E/DX2                !
 ! A42   A(15,14,30)           120.1147         estimate D2E/DX2                !
 ! A43   A(14,15,16)           122.1105         estimate D2E/DX2                !
 ! A44   A(14,15,31)           117.1972         estimate D2E/DX2                !
 ! A45   A(16,15,31)           120.5899         estimate D2E/DX2                !
 ! A46   A(15,16,17)           123.2273         estimate D2E/DX2                !
 ! A47   A(15,16,20)           117.7811         estimate D2E/DX2                !
 ! A48   A(17,16,20)           118.9895         estimate D2E/DX2                !
 ! A49   A(16,17,18)           123.356          estimate D2E/DX2                !
 ! A50   A(16,17,19)           119.0122         estimate D2E/DX2                !
 ! A51   A(18,17,19)           117.6309         estimate D2E/DX2                !
 ! A52   A(1,18,17)            122.1053         estimate D2E/DX2                !
 ! A53   A(1,18,32)            117.2478         estimate D2E/DX2                !
 ! A54   A(17,18,32)           120.5847         estimate D2E/DX2                !
 ! A55   A(3,19,7)             119.7575         estimate D2E/DX2                !
 ! A56   A(3,19,17)            119.6796         estimate D2E/DX2                !
 ! A57   A(7,19,17)            120.5628         estimate D2E/DX2                !
 ! A58   A(8,20,12)            119.664          estimate D2E/DX2                !
 ! A59   A(8,20,16)            120.731          estimate D2E/DX2                !
 ! A60   A(12,20,16)           119.6049         estimate D2E/DX2                !
 ! D1    D(18,1,2,3)            -3.9789         estimate D2E/DX2                !
 ! D2    D(18,1,2,22)          177.4789         estimate D2E/DX2                !
 ! D3    D(21,1,2,3)           176.9331         estimate D2E/DX2                !
 ! D4    D(21,1,2,22)           -1.6091         estimate D2E/DX2                !
 ! D5    D(2,1,18,17)            3.3956         estimate D2E/DX2                !
 ! D6    D(2,1,18,32)         -179.459          estimate D2E/DX2                !
 ! D7    D(21,1,18,17)        -177.5151         estimate D2E/DX2                !
 ! D8    D(21,1,18,32)          -0.3697         estimate D2E/DX2                !
 ! D9    D(1,2,3,4)            178.2249         estimate D2E/DX2                !
 ! D10   D(1,2,3,19)            -1.528          estimate D2E/DX2                !
 ! D11   D(22,2,3,4)            -3.2585         estimate D2E/DX2                !
 ! D12   D(22,2,3,19)          176.9886         estimate D2E/DX2                !
 ! D13   D(2,3,4,5)            177.7821         estimate D2E/DX2                !
 ! D14   D(2,3,4,23)            -3.7008         estimate D2E/DX2                !
 ! D15   D(19,3,4,5)            -2.4649         estimate D2E/DX2                !
 ! D16   D(19,3,4,23)          176.0522         estimate D2E/DX2                !
 ! D17   D(2,3,19,7)          -172.3679         estimate D2E/DX2                !
 ! D18   D(2,3,19,17)            7.7193         estimate D2E/DX2                !
 ! D19   D(4,3,19,7)             7.8798         estimate D2E/DX2                !
 ! D20   D(4,3,19,17)         -172.033          estimate D2E/DX2                !
 ! D21   D(3,4,5,6)             -3.2706         estimate D2E/DX2                !
 ! D22   D(3,4,5,24)           177.0741         estimate D2E/DX2                !
 ! D23   D(23,4,5,6)           178.1854         estimate D2E/DX2                !
 ! D24   D(23,4,5,24)           -1.4699         estimate D2E/DX2                !
 ! D25   D(4,5,6,7)              3.6982         estimate D2E/DX2                !
 ! D26   D(4,5,6,25)          -179.7469         estimate D2E/DX2                !
 ! D27   D(24,5,6,7)          -176.6462         estimate D2E/DX2                !
 ! D28   D(24,5,6,25)           -0.0913         estimate D2E/DX2                !
 ! D29   D(5,6,7,8)           -179.2261         estimate D2E/DX2                !
 ! D30   D(5,6,7,19)             1.6628         estimate D2E/DX2                !
 ! D31   D(25,6,7,8)             4.3356         estimate D2E/DX2                !
 ! D32   D(25,6,7,19)         -174.7755         estimate D2E/DX2                !
 ! D33   D(6,7,8,9)             15.891          estimate D2E/DX2                !
 ! D34   D(6,7,8,20)          -164.3334         estimate D2E/DX2                !
 ! D35   D(19,7,8,9)          -165.0108         estimate D2E/DX2                !
 ! D36   D(19,7,8,20)           14.7649         estimate D2E/DX2                !
 ! D37   D(6,7,19,3)            -7.3428         estimate D2E/DX2                !
 ! D38   D(6,7,19,17)          172.5693         estimate D2E/DX2                !
 ! D39   D(8,7,19,3)           173.5082         estimate D2E/DX2                !
 ! D40   D(8,7,19,17)           -6.5797         estimate D2E/DX2                !
 ! D41   D(7,8,9,10)          -177.1482         estimate D2E/DX2                !
 ! D42   D(7,8,9,26)             5.7426         estimate D2E/DX2                !
 ! D43   D(20,8,9,10)            3.0732         estimate D2E/DX2                !
 ! D44   D(20,8,9,26)         -174.0359         estimate D2E/DX2                !
 ! D45   D(7,8,20,12)          171.9042         estimate D2E/DX2                !
 ! D46   D(7,8,20,16)           -8.0186         estimate D2E/DX2                !
 ! D47   D(9,8,20,12)           -8.3071         estimate D2E/DX2                !
 ! D48   D(9,8,20,16)          171.7701         estimate D2E/DX2                !
 ! D49   D(8,9,10,11)            3.013          estimate D2E/DX2                !
 ! D50   D(8,9,10,27)         -177.5673         estimate D2E/DX2                !
 ! D51   D(26,9,10,11)        -179.7891         estimate D2E/DX2                !
 ! D52   D(26,9,10,27)          -0.3693         estimate D2E/DX2                !
 ! D53   D(9,10,11,12)          -3.7635         estimate D2E/DX2                !
 ! D54   D(9,10,11,28)         177.2957         estimate D2E/DX2                !
 ! D55   D(27,10,11,12)        176.8173         estimate D2E/DX2                !
 ! D56   D(27,10,11,28)         -2.1235         estimate D2E/DX2                !
 ! D57   D(10,11,12,13)        178.2819         estimate D2E/DX2                !
 ! D58   D(10,11,12,20)         -1.5619         estimate D2E/DX2                !
 ! D59   D(28,11,12,13)         -2.7973         estimate D2E/DX2                !
 ! D60   D(28,11,12,20)        177.359          estimate D2E/DX2                !
 ! D61   D(11,12,13,14)        177.8926         estimate D2E/DX2                !
 ! D62   D(11,12,13,29)         -3.5882         estimate D2E/DX2                !
 ! D63   D(20,12,13,14)         -2.2635         estimate D2E/DX2                !
 ! D64   D(20,12,13,29)        176.2557         estimate D2E/DX2                !
 ! D65   D(11,12,20,8)           7.7318         estimate D2E/DX2                !
 ! D66   D(11,12,20,16)       -172.3446         estimate D2E/DX2                !
 ! D67   D(13,12,20,8)        -172.1117         estimate D2E/DX2                !
 ! D68   D(13,12,20,16)          7.812          estimate D2E/DX2                !
 ! D69   D(12,13,14,15)         -3.5304         estimate D2E/DX2                !
 ! D70   D(12,13,14,30)        177.0862         estimate D2E/DX2                !
 ! D71   D(29,13,14,15)        177.924          estimate D2E/DX2                !
 ! D72   D(29,13,14,30)         -1.4594         estimate D2E/DX2                !
 ! D73   D(13,14,15,16)          3.8812         estimate D2E/DX2                !
 ! D74   D(13,14,15,31)       -179.7802         estimate D2E/DX2                !
 ! D75   D(30,14,15,16)       -176.7343         estimate D2E/DX2                !
 ! D76   D(30,14,15,31)         -0.3957         estimate D2E/DX2                !
 ! D77   D(14,15,16,17)       -178.8877         estimate D2E/DX2                !
 ! D78   D(14,15,16,20)          1.6322         estimate D2E/DX2                !
 ! D79   D(31,15,16,17)          4.8956         estimate D2E/DX2                !
 ! D80   D(31,15,16,20)       -174.5845         estimate D2E/DX2                !
 ! D81   D(15,16,17,18)         15.2924         estimate D2E/DX2                !
 ! D82   D(15,16,17,19)       -164.3449         estimate D2E/DX2                !
 ! D83   D(20,16,17,18)       -165.2334         estimate D2E/DX2                !
 ! D84   D(20,16,17,19)         15.1293         estimate D2E/DX2                !
 ! D85   D(15,16,20,8)         172.5532         estimate D2E/DX2                !
 ! D86   D(15,16,20,12)         -7.3697         estimate D2E/DX2                !
 ! D87   D(17,16,20,8)          -6.9497         estimate D2E/DX2                !
 ! D88   D(17,16,20,12)        173.1275         estimate D2E/DX2                !
 ! D89   D(16,17,18,1)        -176.9233         estimate D2E/DX2                !
 ! D90   D(16,17,18,32)          6.0247         estimate D2E/DX2                !
 ! D91   D(19,17,18,1)           2.7187         estimate D2E/DX2                !
 ! D92   D(19,17,18,32)       -174.3332         estimate D2E/DX2                !
 ! D93   D(16,17,19,3)         171.5099         estimate D2E/DX2                !
 ! D94   D(16,17,19,7)          -8.4023         estimate D2E/DX2                !
 ! D95   D(18,17,19,3)          -8.1482         estimate D2E/DX2                !
 ! D96   D(18,17,19,7)         171.9396         estimate D2E/DX2                !
 --------------------------------------------------------------------------------
 Trust Radius=3.00D-01 FncErr=1.00D-07 GrdErr=1.00D-06 EigMax=2.50D+02 EigMin=1.00D-04
 Number of steps in this run=    192 maximum allowed number of steps=    192.
 GradGradGradGradGradGradGradGradGradGradGradGradGradGradGradGradGradGrad

                          Input orientation:                          
 ---------------------------------------------------------------------
 Center     Atomic      Atomic             Coordinates (Angstroms)
 Number     Number       Type             X           Y           Z
 ---------------------------------------------------------------------
      1          6           0       -2.882000    2.346600   -0.432770
      2          6           0       -3.553280    1.152620   -0.213560
      3          6           0       -2.836900   -0.027060    0.018880
      4          6           0       -3.522000   -1.217230    0.275420
      5          6           0       -2.822250   -2.401370    0.461670
      6          6           0       -1.435620   -2.412960    0.324250
      7          6           0       -0.695760   -1.232800    0.073140
      8          6           0        0.720350   -1.217410   -0.087640
      9          6           0        1.489530   -2.379570   -0.336910
     10          6           0        2.878310   -2.341350   -0.431750
     11          6           0        3.548930   -1.144910   -0.217250
     12          6           0        2.833270    0.030090    0.014380
     13          6           0        3.518890    1.225780    0.265590
     14          6           0        2.818830    2.408950    0.454110
     15          6           0        1.432210    2.417070    0.319270
     16          6           0        0.693160    1.234980    0.072660
     17          6           0       -0.723890    1.219020   -0.092240
     18          6           0       -1.492480    2.383060   -0.338190
     19          6           0       -1.411150   -0.013450   -0.000810
     20          6           0        1.405780    0.015050   -0.000900
     21          1           0       -3.436810    3.252400   -0.662430
     22          1           0       -4.639750    1.144770   -0.249180
     23          1           0       -4.607110   -1.228530    0.356370
     24          1           0       -3.353140   -3.316740    0.708000
     25          1           0       -0.929000   -3.363390    0.474900
     26          1           0        1.003920   -3.337210   -0.508750
     27          1           0        3.434200   -3.245970   -0.663210
     28          1           0        4.634420   -1.137540   -0.250310
     29          1           0        4.603890    1.239030    0.339910
     30          1           0        3.348360    3.326260    0.695530
     31          1           0        0.923660    3.365830    0.471830
     32          1           0       -1.007000    3.340630   -0.508530
 ---------------------------------------------------------------------
                    Distance matrix (angstroms):
                    1          2          3          4          5
     1  C    0.000000
     2  C    1.387176   0.000000
     3  C    2.416668   1.399598   0.000000
     4  C    3.689447   2.419973   1.397025   0.000000
     5  C    4.831854   3.690689   2.415290   1.387994   0.000000
     6  C    5.031750   4.181756   2.783766   2.405231   1.393471
     7  C    4.224653   3.733342   2.457892   2.833512   2.457330
     8  C    5.079194   4.888437   3.752640   4.257857   3.775383
     9  C    6.438645   6.158045   4.937498   5.180870   4.385163
    10  C    7.426846   7.322621   6.182445   6.536643   5.770458
    11  C    7.320789   7.464586   6.487231   7.088442   6.529285
    12  C    6.183080   6.488455   5.670460   6.481775   6.172275
    13  C    6.535697   7.088761   6.482788   7.452686   7.307853
    14  C    5.769741   6.529007   6.173399   7.306657   7.413570
    15  C    4.379833   5.170866   4.928418   6.144449   6.429469
    16  C    3.777953   4.256872   3.749261   4.880781   5.072719
    17  C    2.458625   2.832768   2.455580   3.728258   4.221037
    18  C    1.393212   2.403417   2.782740   4.178224   5.029795
    19  C    2.814218   2.448204   1.425951   2.445624   2.811984
    20  C    4.899765   5.092305   4.242935   5.087031   4.891758
    21  H    1.086753   2.150378   3.402783   4.567758   5.797103
    22  H    2.137238   1.087082   2.166866   2.665261   4.047681
    23  H    4.047258   2.665568   2.165889   1.088184   2.138309
    24  H    5.796270   4.567768   3.400498   2.150251   1.086474
    25  H    6.102627   5.268317   3.870289   3.371861   2.123689
    26  H    6.885626   6.404200   5.097782   5.058971   4.056734
    27  H    8.439450   8.268897   7.081901   7.306540   6.412634
    28  H    8.286682   8.502036   7.558191   8.173734   7.596454
    29  H    7.606727   8.176382   7.554562   8.489256   8.271330
    30  H    6.407041   7.292722   7.068242   8.247523   8.422402
    31  H    4.042299   5.040937   5.085143   6.388029   6.876957
    32  H    2.123549   3.370154   3.868854   5.264398   6.099753
                    6          7          8          9         10
     6  C    0.000000
     7  C    1.415354   0.000000
     8  C    2.499440   1.425291   0.000000
     9  C    2.999125   2.501742   1.415765   0.000000
    10  C    4.380258   3.775947   2.457325   1.392539   0.000000
    11  C    5.171742   4.255519   2.832476   2.404128   1.388240
    12  C    4.928279   3.748653   2.455829   2.781277   2.413460
    13  C    6.147442   4.883127   3.731725   4.180892   3.690670
    14  C    6.431798   5.075414   4.224642   5.032164   4.832560
    15  C    5.617265   4.232067   3.725824   4.841654   5.029692
    16  C    4.231131   2.831790   2.457774   3.723832   4.221309
    17  C    3.724420   2.457552   2.832321   4.231896   5.076155
    18  C    4.841887   3.725372   4.233530   5.619166   6.436817
    19  C    2.421551   1.415650   2.449561   3.758382   4.899418
    20  C    3.751601   2.445216   1.412903   2.419529   2.811867
    21  H    6.088892   5.307677   6.131196   7.489584   8.439431
    22  H    4.822107   4.616469   5.859749   7.070837   8.289004
    23  H    3.385595   3.921594   5.345942   6.242960   7.608614
    24  H    2.154290   3.436207   4.651188   5.041981   6.409476
    25  H    1.087509   2.180648   2.764423   2.734269   4.045020
    26  H    2.738518   2.766957   2.179747   1.087392   2.123912
    27  H    5.038267   4.653132   3.436760   2.153802   1.086704
    28  H    6.229141   5.340835   3.918263   3.382377   2.136820
    29  H    7.057829   5.853836   4.615060   4.821990   4.048729
    30  H    7.480840   6.125953   5.307045   6.089144   5.797716
    31  H    6.243588   4.891715   4.621735   5.829570   6.099919
    32  H    5.829325   4.620765   4.892506   6.243621   6.883780
                   11         12         13         14         15
    11  C    0.000000
    12  C    1.395151   0.000000
    13  C    2.419547   1.401020   0.000000
    14  C    3.689674   2.419204   1.387629   0.000000
    15  C    4.178045   2.784529   2.403391   1.393184   0.000000
    16  C    3.728719   2.456670   2.832324   2.458085   1.415750
    17  C    4.884750   3.752107   4.257848   3.776943   2.500686
    18  C    6.154430   4.936890   5.178579   4.383583   2.997870
    19  C    5.092096   4.244670   5.090379   4.895682   3.754274
    20  C    2.446509   1.427651   2.449922   2.816825   2.423408
    21  H    8.266504   7.082038   7.304120   6.410234   5.036752
    22  H    8.502831   7.560291   8.175265   7.597577   6.229814
    23  H    8.176614   7.553829   8.489037   8.269546   7.054443
    24  H    7.294622   7.067818   8.249546   8.422660   7.478453
    25  H    5.045055   5.087481   6.394374   6.882338   6.246059
    26  H    3.371680   3.867673   5.267405   6.102405   5.829304
    27  H    2.150929   3.398943   4.567974   5.797000   6.086317
    28  H    1.086018   2.162767   2.663802   4.046006   4.818072
    29  H    2.665809   2.168548   1.087623   2.137333   3.383454
    30  H    4.567796   3.404999   2.150801   1.086344   2.154026
    31  H    5.264375   3.870792   3.370099   2.123112   1.087218
    32  H    6.400110   5.097135   5.055248   4.053601   2.736414
                   16         17         18         19         20
    16  C    0.000000
    17  C    1.426702   0.000000
    18  C    2.502780   1.416408   0.000000
    19  C    2.447876   1.414096   2.421508   0.000000
    20  C    1.414732   2.448138   3.757811   2.817074   0.000000
    21  H    4.654782   3.437977   2.154368   3.899592   5.862485
    22  H    5.343374   3.919707   3.383281   3.439043   6.155188
    23  H    5.851687   4.612066   4.819431   3.437755   6.150527
    24  H    6.123263   5.303438   6.086402   3.896853   5.852408
    25  H    4.892669   4.621926   5.830979   3.417728   4.134179
    26  H    4.619473   4.890607   6.243604   4.139800   3.414242
    27  H    5.304123   6.127957   7.487576   5.862199   3.897101
    28  H    4.611582   5.855753   7.066912   6.154246   3.437264
    29  H    3.919853   5.345315   6.239740   6.153495   3.441248
    30  H    3.436787   4.652339   5.039041   5.855893   3.901633
    31  H    2.180135   2.764306   2.731245   4.134520   3.418134
    32  H    2.768048   2.180522   1.087036   3.416280   4.139889
                   21         22         23         24         25
    21  H    0.000000
    22  H    2.461695   0.000000
    23  H    4.741971   2.449553   0.000000
    24  H    6.711086   4.740952   2.461037   0.000000
    25  H    7.165983   5.883661   4.254429   2.435768   0.000000
    26  H    7.947746   7.211555   6.056288   4.523812   2.168970
    27  H    9.457251   9.199929   8.352980   6.924826   4.510720
    28  H    9.197074   9.550873   9.261869   8.334770   6.035891
    29  H    8.349323   9.262872   9.535809   9.176320   7.198150
    30  H    6.920119   8.334343   9.173366   9.436085   7.943293
    31  H    4.507007   6.033614   7.191029   7.937477   6.979596
    32  H    2.436277   4.252756   5.880992   7.162743   6.776216
                   26         27         28         29         30
    26  H    0.000000
    27  H    2.436892   0.000000
    28  H    4.252748   2.460994   0.000000
    29  H    5.884045   4.742325   2.448954   0.000000
    30  H    7.165788   6.711762   4.740683   2.461575   0.000000
    31  H    6.774860   7.162892   5.879759   4.252620   2.435319
    32  H    6.974048   7.945532   7.207378   6.051335   4.518753
                   31         32
    31  H    0.000000
    32  H    2.165453   0.000000
 Stoichiometry    C20H12
 Framework group  C2[X(C20H12)]
 Deg. of freedom    46
 Full point group                 C2      NOp   2
 Largest Abelian subgroup         C2      NOp   2
 Largest concise Abelian subgroup C2      NOp   2
                         Standard orientation:                         
 ---------------------------------------------------------------------
 Center     Atomic      Atomic             Coordinates (Angstroms)
 Number     Number       Type             X           Y           Z
 ---------------------------------------------------------------------
      1          6           0        2.376735    2.853386   -0.440378
      2          6           0        1.190174    3.538172   -0.222665
      3          6           0        0.002351    2.835236    0.009352
      4          6           0       -1.180276    3.533827    0.264388
      5          6           0       -2.372334    2.847533    0.450198
      6          6           0       -2.399349    1.461014    0.313829
      7          6           0       -1.227350    0.707783    0.064257
      8          6           0       -1.227698   -0.708535   -0.095427
      9          6           0       -2.398201   -1.464837   -0.345065
     10          6           0       -2.376735   -2.853386   -0.440378
     11          6           0       -1.190174   -3.538172   -0.222665
     12          6           0       -0.002351   -2.835236    0.009352
     13          6           0        1.180276   -3.533827    0.264388
     14          6           0        2.372334   -2.847533    0.450198
     15          6           0        2.399349   -1.461014    0.313829
     16          6           0        1.227350   -0.707783    0.064257
     17          6           0        1.227698    0.708535   -0.095427
     18          6           0        2.398201    1.464837   -0.345065
     19          6           0        0.000000    1.409408   -0.009236
     20          6           0       -0.000000   -1.409408   -0.009236
     21          1           0        3.288882    3.397834   -0.669717
     22          1           0        1.194528    4.624634   -0.259122
     23          1           0       -1.179482    4.619058    0.344498
     24          1           0       -3.281898    3.388837    0.695368
     25          1           0       -3.355519    0.965192    0.464084
     26          1           0       -3.350199   -0.968660   -0.518065
     27          1           0       -3.288882   -3.397834   -0.669717
     28          1           0       -1.194528   -4.624634   -0.259122
     29          1           0        1.179482   -4.619058    0.344498
     30          1           0        3.281898   -3.388837    0.695368
     31          1           0        3.355519   -0.965192    0.464084
     32          1           0        3.350199    0.968660   -0.518065
 ---------------------------------------------------------------------
 Rotational constants (GHZ):           0.6299433           0.3335767           0.2221469
 Standard basis: def2SVPP (5D, 7F)
 There are   162 symmetry adapted cartesian basis functions of A   symmetry.
 There are   162 symmetry adapted cartesian basis functions of B   symmetry.
 There are   152 symmetry adapted basis functions of A   symmetry.
 There are   152 symmetry adapted basis functions of B   symmetry.
   304 basis functions,   548 primitive gaussians,   324 cartesian basis functions
    66 alpha electrons       66 beta electrons
       nuclear repulsion energy      1374.8252657863 Hartrees.
 NAtoms=   32 NActive=   32 NUniq=   16 SFac= 4.00D+00 NAtFMM=   60 NAOKFM=F Big=F
 Integral buffers will be    131072 words long.
 Raffenetti 2 integral format.
 Two-electron integral symmetry is turned on.
 Nuclear repulsion after empirical dispersion term =     1374.7404410202 Hartrees.
 One-electron integrals computed using PRISM.
   2 Symmetry operations used in ECPInt.
 ECPInt:  NShTT=   10440 NPrTT=   41912 LenC2=    9948 LenP2D=   27822.
 LDataN:  DoStor=T MaxTD1= 4 Len=   56
 NBasis=   304 RedAO= T EigKep=  1.47D-04  NBF=   152   152
 NBsUse=   304 1.00D-06 EigRej= -1.00D+00 NBFU=   152   152
 ExpMin= 1.22D-01 ExpMax= 1.24D+03 ExpMxC= 1.86D+02 IAcc=3 IRadAn=         5 AccDes= 0.00D+00
 Harris functional with IExCor=  402 and IRadAn=       5 diagonalized for initial guess.
 HarFok:  IExCor=  402 AccDes= 0.00D+00 IRadAn=         5 IDoV= 1 UseB2=F ITyADJ=14
 ICtDFT=  3500011 ScaDFX=  1.000000  1.000000  1.000000  1.000000
 FoFCou: FMM=F IPFlag=           0 FMFlag=      100000 FMFlg1=           0
         NFxFlg=           0 DoJE=T BraDBF=F KetDBF=T FulRan=T
         wScrn=  0.000000 ICntrl=       500 IOpCl=  0 I1Cent=   200000004 NGrid=           0
         NMat0=    1 NMatS0=      1 NMatT0=    0 NMatD0=    1 NMtDS0=    0 NMtDT0=    0
 Petite list used in FoFCou.
 Initial guess orbital symmetries:
       Occupied  (B) (A) (B) (A) (A) (B) (A) (B) (B) (A) (B) (A)
                 (B) (A) (B) (B) (A) (B) (A) (A) (A) (B) (B) (A)
                 (A) (B) (A) (B) (B) (A) (B) (A) (A) (A) (B) (B)
                 (B) (A) (B) (B) (A) (A) (A) (A) (B) (B) (B) (A)
                 (A) (A) (B) (B) (A) (B) (B) (B) (A) (A) (B) (A)
                 (A) (B) (A) (B) (B) (A)
       Virtual   (B) (A) (A) (A) (B) (B) (B) (A) (A) (B) (B) (A)
                 (A) (A) (B) (B) (B) (A) (A) (B) (B) (A) (A) (A)
                 (B) (B) (A) (A) (B) (B) (B) (A) (A) (B) (B) (A)
                 (A) (B) (B) (A) (A) (B) (A) (A) (B) (B) (B) (B)
                 (B) (A) (A) (A) (B) (A) (B) (A) (B) (B) (A) (A)
                 (B) (A) (A) (A) (B) (A) (B) (B) (A) (A) (B) (A)
                 (B) (A) (A) (B) (B) (A) (B) (A) (B) (A) (A) (B)
                 (B) (A) (A) (B) (A) (B) (B) (A) (B) (B) (A) (B)
                 (A) (B) (B) (A) (B) (A) (A) (B) (A) (A) (B) (A)
                 (B) (A) (B) (B) (A) (A) (B) (A) (B) (B) (B) (B)
                 (A) (B) (A) (A) (B) (A) (A) (B) (B) (A) (A) (A)
                 (B) (B) (A) (B) (B) (B) (A) (B) (A) (A) (B) (B)
                 (A) (B) (A) (B) (B) (A) (B) (A) (A) (A) (A) (B)
                 (A) (B) (B) (A) (B) (A) (B) (B) (A) (A) (A) (B)
                 (A) (B) (A) (B) (B) (A) (A) (A) (B) (B) (B) (A)
                 (A) (B) (B) (A) (A) (B) (B) (A) (A) (B) (B) (A)
                 (B) (B) (A) (A) (B) (A) (B) (A) (B) (B) (B) (A)
                 (A) (B) (B) (B) (A) (A) (A) (A) (B) (B) (A) (A)
                 (A) (B) (A) (B) (A) (B) (B) (A) (A) (B) (A) (B)
                 (B) (A) (A) (B) (A) (B) (A) (B) (B) (A)
 The electronic state of the initial guess is 1-A.
 Requested convergence on RMS density matrix=1.00D-08 within 128 cycles.
 Requested convergence on MAX density matrix=1.00D-06.
 Requested convergence on             energy=1.00D-06.
 No special actions if energy rises.
 Integral accuracy reduced to 1.0D-05 until final iterations.
 Initial convergence to 1.0D-05 achieved.  Increase integral accuracy.
 SCF Done:  E(RB3LYP) =  -768.904088827     A.U. after   14 cycles
            NFock= 14  Conv=0.67D-08     -V/T= 2.0103

 **********************************************************************

            Population analysis using the SCF Density.

 **********************************************************************

 Orbital symmetries:
       Occupied  (B) (A) (B) (A) (B) (A) (B) (A) (B) (A) (B) (A)
                 (B) (A) (B) (A) (A) (B) (A) (B) (A) (B) (B) (A)
                 (A) (B) (A) (B) (B) (A) (B) (A) (A) (A) (B) (B)
                 (B) (B) (A) (A) (B) (A) (A) (A) (B) (B) (B) (A)
                 (A) (A) (B) (B) (B) (A) (B) (B) (B) (A) (A) (A)
                 (A) (B) (B) (A) (B) (A)
       Virtual   (B) (A) (A) (A) (B) (A) (B) (B) (B) (B) (A) (A)
                 (B) (B) (A) (A) (A) (B) (A) (B) (A) (B) (A) (A)
                 (B) (A) (B) (B) (A) (B) (B) (A) (B) (A) (A) (B)
                 (B) (A) (A) (B) (B) (A) (B) (A) (A) (B) (A) (A)
                 (B) (B) (B) (A) (B) (A) (B) (A) (B) (B) (A) (A)
                 (A) (A) (A) (B) (B) (B) (B) (A) (A) (B) (A) (B)
                 (A) (A) (B) (A) (B) (A) (B) (A) (B) (B) (A) (B)
                 (A) (A) (B) (A) (A) (A) (B) (B) (B) (A) (B) (B)
                 (A) (B) (B) (B) (A) (B) (A) (A) (A) (A) (B) (A)
                 (A) (B) (B) (A) (B) (A) (B) (A) (B) (B) (B) (A)
                 (B) (B) (A) (B) (A) (A) (A) (B) (B) (A) (A) (B)
                 (A) (B) (A) (B) (B) (B) (A) (B) (A) (B) (B) (A)
                 (A) (B) (B) (A) (B) (B) (A) (A) (A) (A) (A) (B)
                 (A) (B) (B) (A) (A) (B) (B) (A) (B) (A) (A) (B)
                 (A) (B) (B) (A) (B) (A) (A) (A) (B) (B) (B) (A)
                 (B) (A) (B) (A) (A) (B) (B) (A) (A) (B) (B) (A)
                 (B) (A) (B) (A) (B) (A) (B) (A) (B) (B) (A) (B)
                 (A) (B) (B) (A) (B) (A) (A) (A) (B) (B) (A) (A)
                 (A) (A) (B) (B) (A) (B) (B) (A) (A) (B) (A) (B)
                 (B) (A) (A) (B) (A) (B) (A) (B) (B) (A)
 The electronic state is 1-A.
 Alpha  occ. eigenvalues --  -10.19950 -10.19934 -10.19924 -10.19910 -10.19669
 Alpha  occ. eigenvalues --  -10.19660 -10.19529 -10.19527 -10.19014 -10.19009
 Alpha  occ. eigenvalues --  -10.18994 -10.18992 -10.18889 -10.18889 -10.18880
 Alpha  occ. eigenvalues --  -10.18880 -10.18775 -10.18774 -10.18772 -10.18772
 Alpha  occ. eigenvalues --   -0.89644  -0.86628  -0.83348  -0.81074  -0.81066
 Alpha  occ. eigenvalues --   -0.74854  -0.74725  -0.74412  -0.73486  -0.68600
 Alpha  occ. eigenvalues --   -0.64598  -0.63230  -0.63092  -0.61371  -0.59211
 Alpha  occ. eigenvalues --   -0.54827  -0.54138  -0.52813  -0.51218  -0.49551
 Alpha  occ. eigenvalues --   -0.48775  -0.48116  -0.46354  -0.45874  -0.43507
 Alpha  occ. eigenvalues --   -0.43155  -0.42722  -0.42479  -0.41044  -0.40981
 Alpha  occ. eigenvalues --   -0.39520  -0.38947  -0.38421  -0.38044  -0.36763
 Alpha  occ. eigenvalues --   -0.35461  -0.35140  -0.33337  -0.32774  -0.32348
 Alpha  occ. eigenvalues --   -0.32240  -0.25805  -0.25746  -0.25605  -0.25134
 Alpha  occ. eigenvalues --   -0.18516
 Alpha virt. eigenvalues --   -0.08404  -0.02349  -0.01756  -0.01001  -0.00660
 Alpha virt. eigenvalues --    0.05958   0.06899   0.07024   0.07265   0.07431
 Alpha virt. eigenvalues --    0.08594   0.09503   0.11424   0.11729   0.11818
 Alpha virt. eigenvalues --    0.13256   0.15005   0.15902   0.16797   0.17853
 Alpha virt. eigenvalues --    0.19902   0.22197   0.23599   0.24122   0.25219
 Alpha virt. eigenvalues --    0.25918   0.27042   0.27225   0.27495   0.28778
 Alpha virt. eigenvalues --    0.28922   0.29129   0.31655   0.31803   0.32721
 Alpha virt. eigenvalues --    0.33034   0.33140   0.34386   0.35176   0.35478
 Alpha virt. eigenvalues --    0.36182   0.36294   0.38770   0.40034   0.40068
 Alpha virt. eigenvalues --    0.41070   0.42872   0.43808   0.44094   0.44173
 Alpha virt. eigenvalues --    0.45611   0.45624   0.46185   0.46412   0.46476
 Alpha virt. eigenvalues --    0.48372   0.48522   0.48563   0.48737   0.49873
 Alpha virt. eigenvalues --    0.50591   0.51907   0.51995   0.52008   0.52704
 Alpha virt. eigenvalues --    0.54019   0.54260   0.54821   0.55572   0.58648
 Alpha virt. eigenvalues --    0.58650   0.59622   0.60061   0.60666   0.63519
 Alpha virt. eigenvalues --    0.63749   0.64494   0.65683   0.66090   0.66126
 Alpha virt. eigenvalues --    0.66531   0.68121   0.68126   0.68185   0.68263
 Alpha virt. eigenvalues --    0.68998   0.69175   0.70947   0.71262   0.72491
 Alpha virt. eigenvalues --    0.72643   0.74040   0.74439   0.75207   0.75378
 Alpha virt. eigenvalues --    0.76412   0.76919   0.77418   0.78513   0.80727
 Alpha virt. eigenvalues --    0.80854   0.81156   0.81167   0.82290   0.82813
 Alpha virt. eigenvalues --    0.83158   0.84103   0.87353   0.88123   0.88127
 Alpha virt. eigenvalues --    0.90134   0.90508   0.92700   0.94940   0.98686
 Alpha virt. eigenvalues --    1.02073   1.02309   1.08390   1.08950   1.11742
 Alpha virt. eigenvalues --    1.11809   1.13679   1.15985   1.18083   1.18704
 Alpha virt. eigenvalues --    1.18984   1.20582   1.22520   1.25657   1.26915
 Alpha virt. eigenvalues --    1.30486   1.30669   1.31607   1.33685   1.34389
 Alpha virt. eigenvalues --    1.35828   1.38211   1.38652   1.40771   1.41631
 Alpha virt. eigenvalues --    1.44245   1.46057   1.46263   1.46568   1.47044
 Alpha virt. eigenvalues --    1.47304   1.47684   1.48886   1.50058   1.51064
 Alpha virt. eigenvalues --    1.51733   1.51913   1.55113   1.64149   1.67502
 Alpha virt. eigenvalues --    1.69536   1.70481   1.72211   1.72682   1.75918
 Alpha virt. eigenvalues --    1.77215   1.78025   1.78836   1.79802   1.80727
 Alpha virt. eigenvalues --    1.81558   1.83722   1.84494   1.84920   1.87336
 Alpha virt. eigenvalues --    1.89067   1.89180   1.93175   1.93623   1.94022
 Alpha virt. eigenvalues --    1.94885   2.00048   2.02981   2.04513   2.06877
 Alpha virt. eigenvalues --    2.07704   2.07879   2.09689   2.10297   2.11956
 Alpha virt. eigenvalues --    2.12186   2.14603   2.15575   2.17056   2.19070
 Alpha virt. eigenvalues --    2.19556   2.19759   2.23199   2.24468   2.25059
 Alpha virt. eigenvalues --    2.26634   2.27316   2.28329   2.28733   2.30492
 Alpha virt. eigenvalues --    2.31954   2.35495   2.36908   2.37823   2.42597
 Alpha virt. eigenvalues --    2.42907   2.48898   2.49485   2.49701   2.50584
 Alpha virt. eigenvalues --    2.53781   2.55727   2.57028   2.58641   2.61253
 Alpha virt. eigenvalues --    2.61363   2.62791   2.66577   2.67162   2.67324
 Alpha virt. eigenvalues --    2.68419   2.73472   2.74827   2.75212   2.75756
 Alpha virt. eigenvalues --    2.76349   2.77241   2.84125   2.87572   2.90837
 Alpha virt. eigenvalues --    2.92719   3.00116   3.08753   3.20445   3.29841
 Alpha virt. eigenvalues --    3.37134   3.53736   3.54644
          Condensed to atoms (all electrons):
               1          2          3          4          5          6
     1  C    5.213351   0.174707   0.156055   0.023329  -0.001833   0.000512
     2  C    0.174707   5.531195   0.204272  -0.175014   0.023229  -0.002862
     3  C    0.156055   0.204272   5.420111   0.203492   0.156052  -0.168573
     4  C    0.023329  -0.175014   0.203492   5.534382   0.174822   0.157168
     5  C   -0.001833   0.023229   0.156052   0.174822   5.213858   0.164123
     6  C    0.000512  -0.002862  -0.168573   0.157168   0.164123   5.492195
     7  C   -0.007115   0.036305   0.009053  -0.190197   0.149210   0.275009
     8  C   -0.000332   0.000334   0.025632  -0.005533   0.028305  -0.162009
     9  C   -0.000006   0.000011  -0.000508   0.000014   0.000642  -0.027643
    10  C    0.000000  -0.000001   0.000002   0.000010  -0.000111   0.000648
    11  C   -0.000001   0.000000  -0.000001  -0.000001   0.000010   0.000013
    12  C    0.000002  -0.000001   0.000134  -0.000002   0.000002  -0.000508
    13  C    0.000010  -0.000001  -0.000002   0.000000  -0.000001   0.000011
    14  C   -0.000111   0.000010   0.000002  -0.000001   0.000000  -0.000006
    15  C    0.000648   0.000013  -0.000508   0.000011  -0.000006   0.000113
    16  C    0.028203  -0.005528   0.025497   0.000345  -0.000335  -0.001615
    17  C    0.148311  -0.189318   0.007689   0.036364  -0.007101   0.027959
    18  C    0.163927   0.157160  -0.168704  -0.002855   0.000513  -0.000742
    19  C   -0.157815   0.047098   0.086498   0.047620  -0.158851   0.033938
    20  C    0.000625  -0.000372  -0.000892  -0.000371   0.000629   0.018170
    21  H    0.436019  -0.082698   0.015926  -0.000583   0.000013  -0.000001
    22  H   -0.082412   0.440467  -0.080950  -0.020987   0.000979  -0.000076
    23  H    0.000986  -0.020895  -0.081148   0.440248  -0.081939   0.015524
    24  H    0.000013  -0.000583   0.016007  -0.082482   0.435791  -0.079676
    25  H    0.000003   0.000001  -0.002020   0.016260  -0.086296   0.423877
    26  H   -0.000000   0.000002   0.000033  -0.000109   0.001401   0.010987
    27  H   -0.000000   0.000000  -0.000000   0.000000  -0.000001  -0.000005
    28  H   -0.000000   0.000000   0.000000   0.000000  -0.000000  -0.000000
    29  H   -0.000000   0.000000   0.000000   0.000000  -0.000000  -0.000000
    30  H   -0.000001   0.000000   0.000000   0.000000  -0.000000  -0.000000
    31  H    0.001400  -0.000111   0.000032   0.000002  -0.000000   0.000002
    32  H   -0.086203   0.016267  -0.001964   0.000001   0.000003   0.000002
               7          8          9         10         11         12
     1  C   -0.007115  -0.000332  -0.000006   0.000000  -0.000001   0.000002
     2  C    0.036305   0.000334   0.000011  -0.000001   0.000000  -0.000001
     3  C    0.009053   0.025632  -0.000508   0.000002  -0.000001   0.000134
     4  C   -0.190197  -0.005533   0.000014   0.000010  -0.000001  -0.000002
     5  C    0.149210   0.028305   0.000642  -0.000111   0.000010   0.000002
     6  C    0.275009  -0.162009  -0.027643   0.000648   0.000013  -0.000508
     7  C    5.652368   0.238392  -0.161161   0.028203  -0.005528   0.025497
     8  C    0.238392   5.651606   0.274909   0.148311  -0.189318   0.007689
     9  C   -0.161161   0.274909   5.492253   0.163927   0.157160  -0.168704
    10  C    0.028203   0.148311   0.163927   5.213351   0.174707   0.156055
    11  C   -0.005528  -0.189318   0.157160   0.174707   5.531195   0.204272
    12  C    0.025497   0.007689  -0.168704   0.156055   0.204272   5.420111
    13  C    0.000345   0.036364  -0.002855   0.023329  -0.175014   0.203492
    14  C   -0.000335  -0.007101   0.000513  -0.001833   0.023229   0.156052
    15  C   -0.001615   0.027959  -0.000742   0.000512  -0.002862  -0.168573
    16  C   -0.113521  -0.091658   0.027894  -0.007115   0.036305   0.009053
    17  C   -0.091658  -0.112373  -0.001644  -0.000332   0.000334   0.025632
    18  C    0.027894  -0.001644   0.000112  -0.000006   0.000011  -0.000508
    19  C    0.140928  -0.032718   0.018452   0.000625  -0.000372  -0.000892
    20  C   -0.030551   0.146221   0.032861  -0.157815   0.047098   0.086498
    21  H    0.000062  -0.000001  -0.000000  -0.000000   0.000000  -0.000000
    22  H   -0.000237   0.000009  -0.000000  -0.000000   0.000000   0.000000
    23  H   -0.001563   0.000039  -0.000000  -0.000000   0.000000   0.000000
    24  H    0.015673  -0.000396  -0.000005  -0.000001   0.000000   0.000000
    25  H   -0.049369  -0.042567   0.011329   0.001400  -0.000111   0.000032
    26  H   -0.042251  -0.048931   0.423311  -0.086203   0.016267  -0.001964
    27  H   -0.000390   0.015711  -0.079664   0.436019  -0.082698   0.015926
    28  H    0.000037  -0.001595   0.015628  -0.082412   0.440467  -0.080950
    29  H    0.000009  -0.000245  -0.000077   0.000986  -0.020895  -0.081148
    30  H   -0.000001   0.000062  -0.000001   0.000013  -0.000583   0.016007
    31  H   -0.000057  -0.000086   0.000002   0.000003   0.000001  -0.002020
    32  H   -0.000090  -0.000053   0.000002  -0.000000   0.000002   0.000033
              13         14         15         16         17         18
     1  C    0.000010  -0.000111   0.000648   0.028203   0.148311   0.163927
     2  C   -0.000001   0.000010   0.000013  -0.005528  -0.189318   0.157160
     3  C   -0.000002   0.000002  -0.000508   0.025497   0.007689  -0.168704
     4  C    0.000000  -0.000001   0.000011   0.000345   0.036364  -0.002855
     5  C   -0.000001   0.000000  -0.000006  -0.000335  -0.007101   0.000513
     6  C    0.000011  -0.000006   0.000113  -0.001615   0.027959  -0.000742
     7  C    0.000345  -0.000335  -0.001615  -0.113521  -0.091658   0.027894
     8  C    0.036364  -0.007101   0.027959  -0.091658  -0.112373  -0.001644
     9  C   -0.002855   0.000513  -0.000742   0.027894  -0.001644   0.000112
    10  C    0.023329  -0.001833   0.000512  -0.007115  -0.000332  -0.000006
    11  C   -0.175014   0.023229  -0.002862   0.036305   0.000334   0.000011
    12  C    0.203492   0.156052  -0.168573   0.009053   0.025632  -0.000508
    13  C    5.534382   0.174822   0.157168  -0.190197  -0.005533   0.000014
    14  C    0.174822   5.213858   0.164123   0.149210   0.028305   0.000642
    15  C    0.157168   0.164123   5.492195   0.275009  -0.162009  -0.027643
    16  C   -0.190197   0.149210   0.275009   5.652368   0.238392  -0.161161
    17  C   -0.005533   0.028305  -0.162009   0.238392   5.651606   0.274909
    18  C    0.000014   0.000642  -0.027643  -0.161161   0.274909   5.492253
    19  C   -0.000371   0.000629   0.018170  -0.030551   0.146221   0.032861
    20  C    0.047620  -0.158851   0.033938   0.140928  -0.032718   0.018452
    21  H    0.000000  -0.000001  -0.000005  -0.000390   0.015711  -0.079664
    22  H    0.000000  -0.000000  -0.000000   0.000037  -0.001595   0.015628
    23  H    0.000000  -0.000000  -0.000000   0.000009  -0.000245  -0.000077
    24  H    0.000000  -0.000000  -0.000000  -0.000001   0.000062  -0.000001
    25  H    0.000002  -0.000000   0.000002  -0.000057  -0.000086   0.000002
    26  H    0.000001   0.000003   0.000002  -0.000090  -0.000053   0.000002
    27  H   -0.000583   0.000013  -0.000001   0.000062  -0.000001  -0.000000
    28  H   -0.020987   0.000979  -0.000076  -0.000237   0.000009  -0.000000
    29  H    0.440248  -0.081939   0.015524  -0.001563   0.000039  -0.000000
    30  H   -0.082482   0.435791  -0.079676   0.015673  -0.000396  -0.000005
    31  H    0.016260  -0.086296   0.423877  -0.049369  -0.042567   0.011329
    32  H   -0.000109   0.001401   0.010987  -0.042251  -0.048931   0.423311
              19         20         21         22         23         24
     1  C   -0.157815   0.000625   0.436019  -0.082412   0.000986   0.000013
     2  C    0.047098  -0.000372  -0.082698   0.440467  -0.020895  -0.000583
     3  C    0.086498  -0.000892   0.015926  -0.080950  -0.081148   0.016007
     4  C    0.047620  -0.000371  -0.000583  -0.020987   0.440248  -0.082482
     5  C   -0.158851   0.000629   0.000013   0.000979  -0.081939   0.435791
     6  C    0.033938   0.018170  -0.000001  -0.000076   0.015524  -0.079676
     7  C    0.140928  -0.030551   0.000062  -0.000237  -0.001563   0.015673
     8  C   -0.032718   0.146221  -0.000001   0.000009   0.000039  -0.000396
     9  C    0.018452   0.032861  -0.000000  -0.000000  -0.000000  -0.000005
    10  C    0.000625  -0.157815  -0.000000  -0.000000  -0.000000  -0.000001
    11  C   -0.000372   0.047098   0.000000   0.000000   0.000000   0.000000
    12  C   -0.000892   0.086498  -0.000000   0.000000   0.000000   0.000000
    13  C   -0.000371   0.047620   0.000000   0.000000   0.000000   0.000000
    14  C    0.000629  -0.158851  -0.000001  -0.000000  -0.000000  -0.000000
    15  C    0.018170   0.033938  -0.000005  -0.000000  -0.000000  -0.000000
    16  C   -0.030551   0.140928  -0.000390   0.000037   0.000009  -0.000001
    17  C    0.146221  -0.032718   0.015711  -0.001595  -0.000245   0.000062
    18  C    0.032861   0.018452  -0.079664   0.015628  -0.000077  -0.000001
    19  C    5.830446  -0.147417  -0.001291   0.016439   0.016369  -0.001271
    20  C   -0.147417   5.830446   0.000009   0.000000   0.000000   0.000008
    21  H   -0.001291   0.000009   0.674203  -0.012405  -0.000016  -0.000000
    22  H    0.016439   0.000000  -0.012405   0.678193   0.006605  -0.000015
    23  H    0.016369   0.000000  -0.000016   0.006605   0.677640  -0.012409
    24  H   -0.001271   0.000008  -0.000000  -0.000015  -0.012409   0.674154
    25  H    0.021565  -0.001842   0.000000  -0.000001  -0.000369  -0.013035
    26  H   -0.001873   0.021424   0.000000   0.000000  -0.000000   0.000029
    27  H    0.000009  -0.001291   0.000000  -0.000000  -0.000000  -0.000000
    28  H    0.000000   0.016439  -0.000000   0.000000  -0.000000  -0.000000
    29  H    0.000000   0.016369  -0.000000  -0.000000   0.000000  -0.000000
    30  H    0.000008  -0.001271  -0.000000  -0.000000  -0.000000   0.000000
    31  H   -0.001842   0.021565   0.000030  -0.000000   0.000000   0.000000
    32  H    0.021424  -0.001873  -0.013116  -0.000372  -0.000001   0.000000
              25         26         27         28         29         30
     1  C    0.000003  -0.000000  -0.000000  -0.000000  -0.000000  -0.000001
     2  C    0.000001   0.000002   0.000000   0.000000   0.000000   0.000000
     3  C   -0.002020   0.000033  -0.000000   0.000000   0.000000   0.000000
     4  C    0.016260  -0.000109   0.000000   0.000000   0.000000   0.000000
     5  C   -0.086296   0.001401  -0.000001  -0.000000  -0.000000  -0.000000
     6  C    0.423877   0.010987  -0.000005  -0.000000  -0.000000  -0.000000
     7  C   -0.049369  -0.042251  -0.000390   0.000037   0.000009  -0.000001
     8  C   -0.042567  -0.048931   0.015711  -0.001595  -0.000245   0.000062
     9  C    0.011329   0.423311  -0.079664   0.015628  -0.000077  -0.000001
    10  C    0.001400  -0.086203   0.436019  -0.082412   0.000986   0.000013
    11  C   -0.000111   0.016267  -0.082698   0.440467  -0.020895  -0.000583
    12  C    0.000032  -0.001964   0.015926  -0.080950  -0.081148   0.016007
    13  C    0.000002   0.000001  -0.000583  -0.020987   0.440248  -0.082482
    14  C   -0.000000   0.000003   0.000013   0.000979  -0.081939   0.435791
    15  C    0.000002   0.000002  -0.000001  -0.000076   0.015524  -0.079676
    16  C   -0.000057  -0.000090   0.000062  -0.000237  -0.001563   0.015673
    17  C   -0.000086  -0.000053  -0.000001   0.000009   0.000039  -0.000396
    18  C    0.000002   0.000002  -0.000000  -0.000000  -0.000000  -0.000005
    19  C    0.021565  -0.001873   0.000009   0.000000   0.000000   0.000008
    20  C   -0.001842   0.021424  -0.001291   0.016439   0.016369  -0.001271
    21  H    0.000000   0.000000   0.000000  -0.000000  -0.000000  -0.000000
    22  H   -0.000001   0.000000  -0.000000   0.000000  -0.000000  -0.000000
    23  H   -0.000369  -0.000000  -0.000000  -0.000000   0.000000  -0.000000
    24  H   -0.013035   0.000029  -0.000000  -0.000000  -0.000000   0.000000
    25  H    0.680346  -0.000379   0.000030  -0.000000   0.000000   0.000000
    26  H   -0.000379   0.680301  -0.013116  -0.000372  -0.000001   0.000000
    27  H    0.000030  -0.013116   0.674203  -0.012405  -0.000016  -0.000000
    28  H   -0.000000  -0.000372  -0.012405   0.678193   0.006605  -0.000015
    29  H    0.000000  -0.000001  -0.000016   0.006605   0.677640  -0.012409
    30  H    0.000000   0.000000  -0.000000  -0.000015  -0.012409   0.674154
    31  H    0.000000  -0.000000   0.000000  -0.000001  -0.000369  -0.013035
    32  H   -0.000000   0.000000   0.000000   0.000000  -0.000000   0.000029
              31         32
     1  C    0.001400  -0.086203
     2  C   -0.000111   0.016267
     3  C    0.000032  -0.001964
     4  C    0.000002   0.000001
     5  C   -0.000000   0.000003
     6  C    0.000002   0.000002
     7  C   -0.000057  -0.000090
     8  C   -0.000086  -0.000053
     9  C    0.000002   0.000002
    10  C    0.000003  -0.000000
    11  C    0.000001   0.000002
    12  C   -0.002020   0.000033
    13  C    0.016260  -0.000109
    14  C   -0.086296   0.001401
    15  C    0.423877   0.010987
    16  C   -0.049369  -0.042251
    17  C   -0.042567  -0.048931
    18  C    0.011329   0.423311
    19  C   -0.001842   0.021424
    20  C    0.021565  -0.001873
    21  H    0.000030  -0.013116
    22  H   -0.000000  -0.000372
    23  H    0.000000  -0.000001
    24  H    0.000000   0.000000
    25  H    0.000000  -0.000000
    26  H   -0.000000   0.000000
    27  H    0.000000   0.000000
    28  H   -0.000001   0.000000
    29  H   -0.000369  -0.000000
    30  H   -0.013035   0.000029
    31  H    0.680346  -0.000379
    32  H   -0.000379   0.680301
 Mulliken charges:
               1
     1  C   -0.012273
     2  C   -0.153687
     3  C    0.178783
     4  C   -0.155932
     5  C   -0.013111
     6  C   -0.176536
     7  C    0.096653
     8  C    0.095017
     9  C   -0.176013
    10  C   -0.012273
    11  C   -0.153687
    12  C    0.178783
    13  C   -0.155932
    14  C   -0.013111
    15  C   -0.176536
    16  C    0.096653
    17  C    0.095017
    18  C   -0.176013
    19  C    0.055965
    20  C    0.055965
    21  H    0.048198
    22  H    0.040694
    23  H    0.041241
    24  H    0.048139
    25  H    0.041283
    26  H    0.041579
    27  H    0.048198
    28  H    0.040694
    29  H    0.041241
    30  H    0.048139
    31  H    0.041283
    32  H    0.041579
 Sum of Mulliken charges =  -0.00000
 Mulliken charges with hydrogens summed into heavy atoms:
               1
     1  C    0.035924
     2  C   -0.112993
     3  C    0.178783
     4  C   -0.114691
     5  C    0.035028
     6  C   -0.135253
     7  C    0.096653
     8  C    0.095017
     9  C   -0.134434
    10  C    0.035924
    11  C   -0.112993
    12  C    0.178783
    13  C   -0.114691
    14  C    0.035028
    15  C   -0.135253
    16  C    0.096653
    17  C    0.095017
    18  C   -0.134434
    19  C    0.055965
    20  C    0.055965
 Electronic spatial extent (au):  <R**2>=           4751.1345
 Charge=             -0.0000 electrons
 Dipole moment (field-independent basis, Debye):
    X=              0.0000    Y=             -0.0000    Z=              0.0414  Tot=              0.0414
 Quadrupole moment (field-independent basis, Debye-Ang):
   XX=           -101.2033   YY=           -100.6847   ZZ=           -120.7989
   XY=              0.0789   XZ=             -0.0000   YZ=              0.0000
 Traceless Quadrupole moment (field-independent basis, Debye-Ang):
   XX=              6.3590   YY=              6.8776   ZZ=            -13.2366
   XY=              0.0789   XZ=             -0.0000   YZ=              0.0000
 Octapole moment (field-independent basis, Debye-Ang**2):
  XXX=             -0.0000  YYY=              0.0000  ZZZ=              0.1127  XYY=              0.0000
  XXY=              0.0000  XXZ=             -0.1220  XZZ=              0.0000  YZZ=             -0.0000
  YYZ=              1.6982  XYZ=            -12.1630
 Hexadecapole moment (field-independent basis, Debye-Ang**3):
 XXXX=          -2106.0085 YYYY=          -3826.3889 ZZZZ=           -199.4027 XXXY=             -2.1883
 XXXZ=              0.0000 YYYX=             -0.7106 YYYZ=             -0.0000 ZZZX=             -0.0000
 ZZZY=             -0.0000 XXYY=           -995.7419 XXZZ=           -439.2680 YYZZ=           -790.8281
 XXYZ=              0.0000 YYXZ=             -0.0000 ZZXY=             -1.6137
 N-N= 1.374740441020D+03 E-N=-4.528516699259D+03  KE= 7.610492830278D+02
 Symmetry A    KE= 3.802293832314D+02
 Symmetry B    KE= 3.808198997964D+02
   2 Symmetry operations used in ECPInt.
 ECPInt:  NShTT=   10440 NPrTT=   41912 LenC2=    9948 LenP2D=   27822.
 LDataN:  DoStor=T MaxTD1= 5 Len=  102
 Calling FoFJK, ICntrl=      2127 FMM=F ISym2X=1 I1Cent= 0 IOpClX= 0 NMat=1 NMatS=1 NMatT=0.
 ***** Axes restored to original set *****
 -------------------------------------------------------------------
 Center     Atomic                   Forces (Hartrees/Bohr)
 Number     Number              X              Y              Z
 -------------------------------------------------------------------
      1        6          -0.008455236   -0.010842130    0.002888946
      2        6          -0.000866524    0.022998272   -0.004642243
      3        6          -0.002276594    0.001576088   -0.000072110
      4        6          -0.001551174   -0.025306053    0.004813837
      5        6          -0.007740410    0.011148972   -0.002558251
      6        6           0.015290128    0.007410116   -0.000358638
      7        6          -0.032263156   -0.023362855    0.007545879
      8        6           0.033165960   -0.021932865   -0.008338757
      9        6          -0.017449284    0.007150144    0.000704148
     10        6           0.008459632    0.010846861    0.002858150
     11        6           0.000859449   -0.023005886   -0.004605688
     12        6           0.002276483   -0.001576207   -0.000072998
     13        6           0.001558506    0.025313943    0.004769782
     14        6           0.007736501   -0.011153179   -0.002551729
     15        6          -0.015290649   -0.007410677   -0.000323042
     16        6           0.032274634    0.023375208    0.007458030
     17        6          -0.033178707    0.021919146   -0.008324108
     18        6           0.017450350   -0.007148997    0.000689224
     19        6          -0.002337503    0.000623975    0.000297247
     20        6           0.002337955   -0.000623487    0.000294697
     21        1          -0.002044167    0.004364794   -0.000409224
     22        1          -0.004691263   -0.003374169    0.001049081
     23        1          -0.004064160    0.003216150   -0.001194236
     24        1          -0.001996029   -0.004665551    0.000208471
     25        1           0.004819880   -0.001651140   -0.001268784
     26        1          -0.004814197   -0.001979359    0.001391654
     27        1           0.002043544   -0.004365465   -0.000405163
     28        1           0.004692858    0.003375886    0.001036345
     29        1           0.004062332   -0.003218117   -0.001195155
     30        1           0.001996339    0.004665885    0.000197735
     31        1          -0.004821818    0.001649055   -0.001264125
     32        1           0.004816318    0.001981642    0.001381026
 -------------------------------------------------------------------
 Cartesian Forces:  Max     0.033178707 RMS     0.010922735

 GradGradGradGradGradGradGradGradGradGradGradGradGradGradGradGradGradGrad
 Berny optimization.
 FormGI is forming the generalized inverse of G from B-inverse, IUseBI=4.
 Internal  Forces:  Max     0.029555474 RMS     0.005717777
 Search for a local minimum.
 Step number   1 out of a maximum of  192
 All quantities printed in internal units (Hartrees-Bohrs-Radians)
 Mixed Optimization -- RFO/linear search
 Second derivative matrix not updated -- first step.
 ITU=  0
     Eigenvalues ---    0.01837   0.01848   0.01849   0.01872   0.01876
     Eigenvalues ---    0.01878   0.01918   0.01952   0.01962   0.02004
     Eigenvalues ---    0.02009   0.02009   0.02024   0.02027   0.02035
     Eigenvalues ---    0.02036   0.02047   0.02168   0.02168   0.02174
     Eigenvalues ---    0.02175   0.02180   0.02181   0.02189   0.02189
     Eigenvalues ---    0.02215   0.02215   0.02229   0.02229   0.15972
     Eigenvalues ---    0.15972   0.15981   0.15981   0.15995   0.15995
     Eigenvalues ---    0.15995   0.15995   0.15998   0.15998   0.16000
     Eigenvalues ---    0.16000   0.22056   0.22059   0.22194   0.22206
     Eigenvalues ---    0.23220   0.23311   0.23581   0.23705   0.24615
     Eigenvalues ---    0.24689   0.24774   0.24793   0.24998   0.33152
     Eigenvalues ---    0.35023   0.35023   0.35102   0.35102   0.35116
     Eigenvalues ---    0.35116   0.35152   0.35152   0.35191   0.35191
     Eigenvalues ---    0.35223   0.35223   0.36536   0.37708   0.38366
     Eigenvalues ---    0.39791   0.40804   0.41109   0.41514   0.42006
     Eigenvalues ---    0.42085   0.42121   0.42750   0.44807   0.44826
     Eigenvalues ---    0.45077   0.45100   0.45639   0.45642   0.45780
     Eigenvalues ---    0.45806   0.47066   0.47075   0.47182   0.47185
 RFO step:  Lambda=-1.74350820D-02 EMin= 1.83691075D-02
 Linear search not attempted -- first point.
 Iteration  1 RMS(Cart)=  0.06832763 RMS(Int)=  0.00103282
 Iteration  2 RMS(Cart)=  0.00172199 RMS(Int)=  0.00014529
 Iteration  3 RMS(Cart)=  0.00000106 RMS(Int)=  0.00014529
 Iteration  4 RMS(Cart)=  0.00000000 RMS(Int)=  0.00014529
 ClnCor:  largest displacement from symmetrization is 2.87D-09 for atom    28.
 Variable       Old X    -DE/DX   Delta X   Delta X   Delta X     New X
                                 (Linear)    (Quad)   (Total)
    R1        2.62138  -0.00059   0.00000  -0.00176  -0.00170   2.61969
    R2        2.63046   0.01340   0.00000   0.02575   0.02579   2.65626
    R3        2.05367   0.00477   0.00000   0.01291   0.01291   2.06657
    R4        2.64486   0.01652   0.00000   0.03602   0.03603   2.68089
    R5        2.05429   0.00468   0.00000   0.01268   0.01268   2.06697
    R6        2.64000   0.01855   0.00000   0.04008   0.04007   2.68007
    R7        2.69466   0.00816   0.00000   0.02286   0.02275   2.71741
    R8        2.62293  -0.00126   0.00000  -0.00312  -0.00307   2.61986
    R9        2.05637   0.00393   0.00000   0.01069   0.01069   2.06706
   R10        2.63328   0.01198   0.00000   0.02280   0.02285   2.65613
   R11        2.05314   0.00495   0.00000   0.01340   0.01340   2.06654
   R12        2.67463  -0.01262   0.00000  -0.02958  -0.02957   2.64506
   R13        2.05509   0.00351   0.00000   0.00953   0.00953   2.06463
   R14        2.69341   0.02956   0.00000   0.06822   0.06824   2.76165
   R15        2.67519   0.01426   0.00000   0.03238   0.03232   2.70752
   R16        2.67541  -0.01324   0.00000  -0.03083  -0.03084   2.64456
   R17        2.67641   0.01402   0.00000   0.03192   0.03186   2.70827
   R18        2.63046   0.01340   0.00000   0.02575   0.02579   2.65626
   R19        2.05487   0.00367   0.00000   0.00997   0.00997   2.06484
   R20        2.62138  -0.00059   0.00000  -0.00176  -0.00170   2.61969
   R21        2.05367   0.00477   0.00000   0.01291   0.01291   2.06657
   R22        2.64486   0.01652   0.00000   0.03602   0.03603   2.68089
   R23        2.05429   0.00468   0.00000   0.01268   0.01268   2.06697
   R24        2.64000   0.01855   0.00000   0.04008   0.04007   2.68007
   R25        2.69466   0.00816   0.00000   0.02286   0.02275   2.71741
   R26        2.62293  -0.00126   0.00000  -0.00312  -0.00307   2.61986
   R27        2.05637   0.00393   0.00000   0.01069   0.01069   2.06706
   R28        2.63328   0.01198   0.00000   0.02280   0.02285   2.65613
   R29        2.05314   0.00495   0.00000   0.01340   0.01340   2.06654
   R30        2.67463  -0.01262   0.00000  -0.02958  -0.02957   2.64506
   R31        2.05509   0.00351   0.00000   0.00953   0.00953   2.06463
   R32        2.69341   0.02956   0.00000   0.06822   0.06824   2.76165
   R33        2.67519   0.01426   0.00000   0.03238   0.03232   2.70752
   R34        2.67541  -0.01324   0.00000  -0.03083  -0.03084   2.64456
   R35        2.67641   0.01402   0.00000   0.03192   0.03186   2.70827
   R36        2.05487   0.00367   0.00000   0.00997   0.00997   2.06484
    A1        2.08849   0.00360   0.00000   0.01329   0.01318   2.10168
    A2        2.09874  -0.00128   0.00000  -0.00369  -0.00365   2.09509
    A3        2.09585  -0.00231   0.00000  -0.00949  -0.00945   2.08640
    A4        2.09906  -0.00082   0.00000   0.00068   0.00053   2.09959
    A5        2.07680   0.00400   0.00000   0.01997   0.02002   2.09682
    A6        2.10704  -0.00317   0.00000  -0.02042  -0.02037   2.08668
    A7        2.09158   0.01026   0.00000   0.03033   0.03059   2.12216
    A8        2.09606  -0.00513   0.00000  -0.01545  -0.01558   2.08047
    A9        2.09555  -0.00513   0.00000  -0.01487  -0.01500   2.08055
   A10        2.09927  -0.00081   0.00000   0.00086   0.00070   2.09997
   A11        2.10775  -0.00314   0.00000  -0.02035  -0.02030   2.08745
   A12        2.07588   0.00396   0.00000   0.01972   0.01978   2.09566
   A13        2.08924   0.00347   0.00000   0.01220   0.01210   2.10135
   A14        2.09770  -0.00112   0.00000  -0.00265  -0.00261   2.09509
   A15        2.09623  -0.00234   0.00000  -0.00953  -0.00948   2.08675
   A16        2.13026  -0.00066   0.00000  -0.00617  -0.00653   2.12374
   A17        2.04561   0.00415   0.00000   0.02551   0.02536   2.07097
   A18        2.10573  -0.00342   0.00000  -0.01726  -0.01743   2.08829
   A19        2.15123  -0.00348   0.00000  -0.01576  -0.01555   2.13568
   A20        2.05252   0.00404   0.00000   0.01406   0.01395   2.06647
   A21        2.07933  -0.00055   0.00000   0.00187   0.00170   2.08103
   A22        2.15411  -0.00388   0.00000  -0.01756  -0.01733   2.13679
   A23        2.07684  -0.00000   0.00000   0.00362   0.00348   2.08031
   A24        2.05222   0.00388   0.00000   0.01399   0.01386   2.06608
   A25        2.13200  -0.00125   0.00000  -0.00801  -0.00832   2.12368
   A26        2.10380  -0.00306   0.00000  -0.01626  -0.01633   2.08746
   A27        2.04630   0.00436   0.00000   0.02566   0.02560   2.07190
   A28        2.08849   0.00360   0.00000   0.01329   0.01318   2.10168
   A29        2.09585  -0.00231   0.00000  -0.00949  -0.00945   2.08640
   A30        2.09874  -0.00128   0.00000  -0.00369  -0.00365   2.09509
   A31        2.09906  -0.00082   0.00000   0.00068   0.00053   2.09959
   A32        2.07680   0.00400   0.00000   0.01997   0.02002   2.09682
   A33        2.10704  -0.00317   0.00000  -0.02042  -0.02037   2.08668
   A34        2.09158   0.01026   0.00000   0.03033   0.03059   2.12216
   A35        2.09606  -0.00513   0.00000  -0.01545  -0.01558   2.08047
   A36        2.09555  -0.00513   0.00000  -0.01487  -0.01500   2.08055
   A37        2.09927  -0.00081   0.00000   0.00086   0.00070   2.09997
   A38        2.10775  -0.00314   0.00000  -0.02035  -0.02030   2.08745
   A39        2.07588   0.00396   0.00000   0.01972   0.01978   2.09566
   A40        2.08924   0.00347   0.00000   0.01220   0.01210   2.10135
   A41        2.09770  -0.00112   0.00000  -0.00265  -0.00261   2.09509
   A42        2.09623  -0.00234   0.00000  -0.00953  -0.00948   2.08675
   A43        2.13026  -0.00066   0.00000  -0.00617  -0.00653   2.12374
   A44        2.04561   0.00415   0.00000   0.02551   0.02536   2.07097
   A45        2.10573  -0.00342   0.00000  -0.01726  -0.01743   2.08829
   A46        2.15123  -0.00348   0.00000  -0.01576  -0.01555   2.13568
   A47        2.05252   0.00404   0.00000   0.01406   0.01395   2.06647
   A48        2.07933  -0.00055   0.00000   0.00187   0.00170   2.08103
   A49        2.15411  -0.00388   0.00000  -0.01756  -0.01733   2.13679
   A50        2.07684  -0.00000   0.00000   0.00362   0.00348   2.08031
   A51        2.05222   0.00388   0.00000   0.01399   0.01386   2.06608
   A52        2.13200  -0.00125   0.00000  -0.00801  -0.00832   2.12368
   A53        2.04630   0.00436   0.00000   0.02566   0.02560   2.07190
   A54        2.10380  -0.00306   0.00000  -0.01626  -0.01633   2.08746
   A55        2.09016  -0.00071   0.00000  -0.00113  -0.00110   2.08906
   A56        2.08769  -0.00003   0.00000   0.00125   0.00122   2.08891
   A57        2.10532   0.00074   0.00000  -0.00009  -0.00011   2.10521
   A58        2.08769  -0.00003   0.00000   0.00125   0.00122   2.08891
   A59        2.10532   0.00074   0.00000  -0.00009  -0.00011   2.10521
   A60        2.09016  -0.00071   0.00000  -0.00113  -0.00110   2.08906
    D1       -0.06935   0.00104   0.00000   0.02326   0.02327  -0.04607
    D2        3.09769   0.00056   0.00000   0.01313   0.01309   3.11078
    D3        3.08806   0.00067   0.00000   0.01500   0.01503   3.10309
    D4       -0.02808   0.00019   0.00000   0.00487   0.00484  -0.02324
    D5        0.05556  -0.00097   0.00000  -0.02806  -0.02824   0.02732
    D6       -3.13604  -0.00002   0.00000   0.00320   0.00349  -3.13255
    D7       -3.10182  -0.00060   0.00000  -0.01975  -0.01998  -3.12181
    D8       -0.01024   0.00035   0.00000   0.01150   0.01175   0.00151
    D9        3.11061   0.00033   0.00000   0.01330   0.01347   3.12408
   D10       -0.02667   0.00019   0.00000   0.00910   0.00923  -0.01744
   D11       -0.05687   0.00093   0.00000   0.02420   0.02419  -0.03268
   D12        3.08903   0.00079   0.00000   0.02001   0.01995   3.10898
   D13        3.10288   0.00042   0.00000   0.01336   0.01333   3.11621
   D14       -0.06459   0.00098   0.00000   0.02410   0.02397  -0.04062
   D15       -0.04302   0.00056   0.00000   0.01755   0.01757  -0.02545
   D16        3.07269   0.00113   0.00000   0.02829   0.02822   3.10091
   D17       -3.00839  -0.00169   0.00000  -0.03440  -0.03427  -3.04265
   D18        0.13788  -0.00185   0.00000  -0.03867  -0.03850   0.09938
   D19        0.13753  -0.00187   0.00000  -0.03872  -0.03852   0.09901
   D20       -2.99939  -0.00203   0.00000  -0.04299  -0.04275  -3.04215
   D21       -0.05708   0.00082   0.00000   0.01731   0.01731  -0.03978
   D22        3.09053   0.00068   0.00000   0.01506   0.01515   3.10567
   D23        3.10992   0.00036   0.00000   0.00735   0.00720   3.11712
   D24       -0.02565   0.00023   0.00000   0.00509   0.00504  -0.02061
   D25        0.06455  -0.00114   0.00000  -0.03290  -0.03305   0.03149
   D26       -3.13718   0.00008   0.00000   0.00589   0.00629  -3.13089
   D27       -3.08306  -0.00100   0.00000  -0.03062  -0.03088  -3.11394
   D28       -0.00159   0.00022   0.00000   0.00817   0.00846   0.00687
   D29       -3.12809   0.00078   0.00000   0.02638   0.02631  -3.10177
   D30        0.02902   0.00042   0.00000   0.01331   0.01329   0.04231
   D31        0.07567  -0.00074   0.00000  -0.01518  -0.01486   0.06081
   D32       -3.05041  -0.00110   0.00000  -0.02825  -0.02789  -3.07829
   D33        0.27735  -0.00149   0.00000  -0.05287  -0.05293   0.22442
   D34       -2.86999  -0.00128   0.00000  -0.04413  -0.04422  -2.91422
   D35       -2.87998  -0.00108   0.00000  -0.03951  -0.03970  -2.91968
   D36        0.25586  -0.00087   0.00000  -0.03076  -0.03099   0.22487
   D37       -0.12816   0.00084   0.00000   0.02153   0.02161  -0.10655
   D38        3.00872   0.00100   0.00000   0.02585   0.02588   3.03460
   D39        3.02829   0.00052   0.00000   0.00918   0.00916   3.03745
   D40       -0.11802   0.00068   0.00000   0.01350   0.01343  -0.10459
   D41       -3.09299   0.00012   0.00000   0.00902   0.00903  -3.08396
   D42        0.10023  -0.00107   0.00000  -0.02443  -0.02416   0.07607
   D43        0.05428  -0.00008   0.00000   0.00042   0.00042   0.05470
   D44       -3.03569  -0.00127   0.00000  -0.03303  -0.03277  -3.06846
   D45        2.99840   0.00101   0.00000   0.02347   0.02347   3.02186
   D46       -0.13848   0.00085   0.00000   0.01916   0.01920  -0.11928
   D47       -0.14861   0.00119   0.00000   0.03160   0.03172  -0.11689
   D48        2.99769   0.00103   0.00000   0.02729   0.02746   3.02515
   D49        0.05556  -0.00097   0.00000  -0.02806  -0.02824   0.02732
   D50       -3.10182  -0.00060   0.00000  -0.01975  -0.01998  -3.12181
   D51       -3.13604  -0.00002   0.00000   0.00320   0.00349  -3.13255
   D52       -0.01024   0.00035   0.00000   0.01150   0.01175   0.00151
   D53       -0.06935   0.00104   0.00000   0.02326   0.02327  -0.04607
   D54        3.09769   0.00056   0.00000   0.01313   0.01309   3.11078
   D55        3.08806   0.00067   0.00000   0.01500   0.01503   3.10309
   D56       -0.02808   0.00019   0.00000   0.00487   0.00484  -0.02324
[...]
 ,-0.00000135,-0.00000204,-0.00428181,0.00000506,0.00000927,0.00447903,
 0.00015239,0.00028677,-0.03868673,0.00001007,0.00002459,0.00458182,0.0
 0000843,0.00000227,0.00555734,-0.00000063,-0.00000128,-0.00045292,-0.0
 0000061,-0.00000058,-0.00077572,0.00000016,0.00000011,0.00017293,-0.00
 000081,-0.00000048,-0.00071783,0.00000080,0.00000070,0.00061221,0.0000
 0021,-0.00000011,-0.00000760,-0.00000004,0.00000002,0.00005569,-0.0000
 0041,-0.00000009,-0.00005625,0.00000368,0.00000588,0.00740669,0.,0.,0.
 00000353,0.00000002,0.00000004,0.00005072,0.00000011,0.00000006,0.0001
 2190,-0.00000003,0.00000005,0.00002983,0.00000428,-0.00000037,0.001538
 06,-0.00018205,-0.00032037,0.02386821,0.00002878,0.00001533,-0.0000000
 4,-0.00003001,-0.00003945,0.00000007,-0.00001538,0.00014731,-0.0000001
 3,-0.00004170,-0.00001065,0.00000004,0.00001274,-0.00001934,0.,-0.0000
 5177,0.00004064,0.00000005,0.00012704,0.00142793,-0.00000110,-0.005111
 49,-0.00175184,0.00000980,-0.01110457,0.02822091,-0.00001227,-0.128824
 35,0.12070208,-0.00003029,0.01194459,-0.01482404,0.00000636,-0.0012760
 6,-0.00299805,0.00000990,0.00061170,-0.00018390,-0.00000018,0.00008000
 ,-0.00027248,-0.00000032,-0.00019707,-0.00005424,0.00000028,0.00005046
 ,0.00024468,-0.00000088,0.00002164,-0.00008717,0.00000011,-0.00001170,
 0.00004238,0.,-0.00044947,-0.00018577,0.00000031,-0.00033942,-0.000927
 70,0.00000070,-0.00000144,0.00000763,0.,-0.00001539,0.00001256,0.,-0.0
 0000973,0.00000103,0.,-0.00002654,-0.00001015,0.00000003,0.00003454,-0
 .00002581,0.00000002,0.00126670,-0.00024813,-0.00000337,0.13243648,0.0
 0000711,0.00003176,-0.00000004,0.00001542,-0.00002682,0.00000003,0.000
 02160,0.00001777,-0.00000005,0.00002698,-0.00000002,-0.00000003,-0.000
 03525,-0.00003479,0.00000005,0.00004376,0.00002546,0.,-0.00012440,0.00
 006738,0.00000023,-0.00072777,0.00140207,0.00000419,-0.00280977,0.0038
 8021,0.00000161,0.12051796,-0.26682923,0.00009577,0.01664529,-0.018838
 98,0.00000632,-0.00419425,-0.00257597,0.00001228,0.00119383,-0.0004343
 1,-0.00000041,-0.00020648,-0.00044091,0.,-0.00017076,0.00000409,0.0000
 0022,0.00002675,0.00021095,-0.00000088,-0.00001793,-0.00006862,0.00000
 013,0.00000330,0.00000039,0.00000002,0.00001062,0.00004684,-0.00000025
 ,-0.00061805,0.00018295,-0.00000003,0.00000763,-0.00000826,0.,0.000006
 36,0.00000279,0.,0.00000750,-0.00000417,0.,0.00000936,0.00000964,-0.00
 000001,0.00001189,-0.00001523,0.00000003,0.00034134,0.00085938,-0.0000
 0378,-0.12982877,0.28142358,-0.00000004,-0.00000005,-0.00001135,0.0000
 0003,0.00000007,0.00002462,-0.00000002,-0.00000015,-0.00002279,0.,0.,-
 0.00000652,0.00000001,0.00000004,-0.00001006,0.00000005,0.,0.00005514,
 0.00000018,-0.00000096,0.00023176,0.00000896,0.00000497,0.00581484,0.0
 0001327,-0.00002213,0.00322480,-0.00003014,0.00009563,-0.03851973,-0.0
 0001955,0.00003039,0.00430246,0.00001089,0.00001136,0.00844241,-0.0000
 0132,0.00000064,0.00017585,-0.00000038,0.00000005,-0.00063571,0.000000
 38,0.00000013,0.00011153,-0.00000070,-0.00000105,-0.00083671,0.0000000
 6,0.00000019,0.00007540,0.00000002,-0.00000001,0.00002221,0.00000014,-
 0.00000010,-0.00024986,0.00000044,0.00000021,-0.00042433,0.,0.,-0.0000
 0450,0.,0.,0.00000288,0.,0.,0.00000195,0.00000002,0.,0.00000389,-0.000
 00001,0.00000006,0.00002983,-0.00000386,-0.00000333,-0.00340988,0.0000
 2561,-0.00011082,0.02618651,-0.00000027,0.00002567,-0.00000010,-0.0000
 1227,-0.00000100,0.00000002,0.00000285,0.00000781,0.,-0.00001586,0.000
 01074,0.,0.00002077,0.00000910,-0.00000011,-0.00004751,-0.00005800,0.0
 0000017,0.00005147,0.00000667,-0.00000084,0.00064231,0.00017957,-0.000
 00112,0.00088201,-0.00308930,0.00000769,-0.01099566,0.00271246,0.00000
 965,-0.33513704,-0.00590235,0.00023309,-0.01270419,-0.00259377,0.00001
 469,0.00064650,-0.00228467,-0.00000104,0.00009318,0.00036868,-0.000000
 43,0.00025040,0.00001738,-0.00000030,-0.00064457,-0.00067452,0.0000011
 6,0.00003485,0.00024663,-0.00000010,-0.00008504,-0.00004559,0.00000010
 ,-0.00003214,0.00001332,0.00000010,0.00059855,0.00283183,0.00000097,-0
 .00001539,0.00000636,0.,-0.00000952,-0.00000057,0.00000002,-0.00001062
 ,0.00000315,0.00000002,-0.00000954,-0.00000762,0.00000002,0.00002088,0
 .00004186,0.00000004,-0.00060506,0.00014318,0.00000042,0.00087011,-0.0
 0017765,-0.00000420,0.35557783,-0.00000805,-0.00005098,-0.00000004,0.0
 0000851,0.00002304,-0.00000001,-0.00004512,-0.00000763,0.00000006,-0.0
 0002590,0.00001196,0.,0.00004400,0.00007277,-0.00000018,-0.00002426,-0
 .00008613,0.00000018,-0.00006293,0.00011648,-0.00000091,0.00008814,-0.
 00092852,0.00000018,-0.00152412,-0.00435365,0.00001102,-0.02886190,0.0
 0421599,0.00002234,-0.00604210,-0.05848976,0.00002249,0.02646061,0.003
 83775,-0.00002035,0.00177899,0.00108086,-0.00000487,-0.00037207,0.0001
 9842,0.00000006,0.00017617,0.00011515,-0.00000033,0.00127048,0.0004474
 1,-0.00000122,0.00000152,-0.00035201,0.00000043,0.00015193,0.00005820,
 -0.00000017,-0.00003515,-0.00005640,0.00000016,0.00117327,-0.00433780,
 0.00000671,0.00001256,0.00000279,0.,-0.00000057,0.00000075,0.00000001,
 -0.00000357,0.00000879,0.00000001,-0.00000115,-0.00000436,0.,0.0000283
 0,0.00007598,0.00000002,-0.00128037,-0.00001254,0.00000107,0.00063936,
 0.00122736,-0.00000546,0.00730446,0.05767071,-0.00000008,-0.00000007,-
 0.00010826,0.00000001,0.,0.00001493,0.00000005,0.00000002,0.00002398,0
 .00000003,-0.00000003,-0.00001018,-0.00000014,-0.00000016,-0.00010926,
 0.00000014,0.00000021,0.00011157,-0.00000079,-0.00000096,-0.00104319,-
 0.00000104,0.00000011,-0.00062399,0.00000641,0.00001222,0.00761609,0.0
 0003564,-0.00000181,0.00453524,0.00023321,0.00002239,-0.03678278,-0.00
 000923,0.00000187,0.00370262,-0.00000439,-0.00000176,-0.00317671,0.000
 00018,-0.00000051,-0.00007802,-0.00000043,-0.00000021,-0.00012652,-0.0
 0000044,0.00000027,0.00014721,0.00000010,0.00000024,0.00017349,-0.0000
 0006,-0.00000002,-0.00000632,0.00000014,0.00000012,0.00010698,0.000002
 33,0.00000545,0.00490795,0.,0.,0.00000288,0.00000002,0.00000001,0.0000
 1743,0.00000003,0.,0.00001906,0.,0.00000001,0.00000195,0.00000005,0.,0
 .00012190,0.00000159,-0.00000002,0.00009754,-0.00000487,-0.00000484,-0
 .00481396,-0.00025902,-0.00003261,0.02484310,0.00002195,-0.00001021,-0
 .00000009,-0.00001617,-0.00001135,0.00000001,0.00000203,-0.00000760,0.
 00000002,-0.00001209,0.00000024,0.00000002,0.00000009,-0.00002456,-0.0
 0000006,-0.00008266,0.00004252,0.00000002,0.00004007,-0.00023809,0.000
 00030,-0.00063108,0.00065103,0.00000006,0.00025455,-0.00001434,-0.0000
 0028,0.00009316,-0.00037097,0.00000017,0.00063570,0.00227497,-0.000004
 79,-0.01217674,0.00224497,0.00001030,-0.33526590,-0.00012585,0.0002284
 4,-0.01155775,-0.00305602,0.00001483,0.00077909,0.00320111,0.00000259,
 0.00064739,-0.00014525,-0.00000085,0.00005027,-0.00000811,-0.00000083,
 -0.00004932,0.00005880,0.00000007,-0.00003263,-0.00001281,0.00000012,0
 .00068340,-0.00272246,0.00000547,-0.00000973,0.00000750,0.,-0.00001062
 ,-0.00000357,0.00000003,-0.00000954,0.00000034,0.00000002,-0.00001497,
 -0.00000675,0.00000002,0.00001466,-0.00000381,0.00000003,0.00003483,-0
 .00003977,0.00000003,-0.00001884,-0.00006134,0.00000020,0.00060298,-0.
 00077688,0.00000032,0.35575462,-0.00004511,0.00007159,-0.00000011,0.00
 002529,0.00001228,-0.00000004,0.00004533,-0.00000681,0.,-0.00000928,0.
 00002286,0.,0.00000916,-0.00005134,-0.00000005,-0.00015499,0.00005582,
 0.00000007,0.00000702,-0.00035723,0.00000043,-0.00129397,0.00043392,0.
 00000075,-0.00017313,0.00011100,-0.00000006,0.00036977,0.00019845,-0.0
 0000051,-0.00178869,0.00109166,-0.00000215,-0.02680941,0.00331033,0.00
 002083,0.00001390,-0.05836090,0.00001775,0.02851835,0.00477804,-0.0000
 2202,0.00163593,-0.00425073,0.00000852,-0.00005382,-0.00093360,0.00000
 030,0.00006148,0.00011767,-0.00000100,0.00002506,-0.00008432,0.0000001
 4,0.00003567,-0.00005591,0.00000011,-0.00106390,-0.00442265,0.00000850
 ,0.00000103,-0.00000417,0.,0.00000315,0.00000879,0.,0.00000034,0.00000
 077,0.00000001,-0.00001294,0.00000237,0.00000001,0.00000461,0.00000074
 ,0.00000004,0.00005854,-0.00002452,0.,0.00001185,0.00001485,0.00000012
 ,0.00080039,-0.00047639,-0.00000007,-0.00081218,0.05749393,-0.00000006
 ,-0.00000014,-0.00010926,-0.00000002,0.,-0.00001017,-0.00000002,0.0000
 0003,0.00002398,0.00000003,0.,0.00001493,-0.00000009,-0.00000003,-0.00
 010826,0.00000019,-0.00000008,-0.00000632,0.00000010,0.00000062,0.0001
 7349,0.00000166,-0.00000073,0.00014721,-0.00000015,-0.00000018,-0.0001
 2652,-0.00000044,0.00000006,-0.00007802,-0.00000144,-0.00000525,-0.003
 17671,0.00003422,-0.00000139,0.00370259,0.00022832,0.00001786,-0.03678
 277,-0.00001117,0.00000214,0.00453528,0.00000388,0.00000732,0.00761609
 ,-0.00000093,0.00000037,-0.00062399,-0.00000089,-0.00000095,-0.0010431
 9,0.00000010,0.00000012,0.00011157,0.00000008,0.00000014,0.00010698,0.
 00000411,0.00000976,0.00490795,0.,0.,0.00000195,0.00000002,0.00000001,
 0.00001906,0.00000002,0.00000001,0.00001743,0.00000002,0.,0.00000288,0
 .00000002,0.00000004,0.00005072,-0.00000005,0.00000008,0.00003011,0.00
 000014,0.00000018,0.00017099,-0.00000098,0.00000114,0.00018343,-0.0002
 5247,-0.00002626,0.02484309,0.00001153,0.00002035,-0.00000003,-0.00004
 133,0.00000975,0.00000002,-0.00001168,-0.00014795,0.00000011,-0.000030
 53,0.00003937,0.,0.00002927,-0.00001538,-0.00000002,-0.00001070,-0.000
 04262,0.00000006,0.00001931,0.00008909,-0.00000003,0.00005645,-0.00024
 805,-0.00000048,-0.00020187,0.00004976,0.00000020,0.00006933,0.0002835
 9,-0.00000077,0.00063320,0.00020715,-0.00000052,-0.00143326,0.00302295
 ,0.00000507,0.01196965,0.01549509,-0.00001862,-0.12363817,-0.11758307,
 0.00016192,-0.01054424,-0.02853508,0.00003403,-0.00516238,0.00160887,0
 .00000707,0.00015539,-0.00142601,0.00000123,-0.00004989,-0.00004228,0.
 00000012,-0.00045304,0.00017488,0.00000001,-0.00037282,0.00091559,-0.0
 0000079,-0.00002654,0.00000936,0.00000002,-0.00000954,-0.00000115,0.,-
 0.00001497,-0.00001294,0.00000002,-0.00000111,-0.00000747,0.,-0.000002
 20,-0.00001195,0.00000001,0.00000354,-0.00000746,0.00000007,0.00003935
 ,0.00006934,-0.00000011,-0.00001990,-0.00001261,0.00000016,0.00088033,
 -0.00064693,-0.00000382,0.12685410,0.00003626,-0.00003358,0.,-0.000027
 88,-0.00000039,0.00000002,-0.00002224,0.00001408,-0.00000001,-0.000015
 50,-0.00002630,0.00000005,-0.00000717,0.00003127,-0.00000003,-0.000003
 54,-0.00000061,0.00000002,0.00001985,-0.00006629,0.00000010,-0.0000301
 1,0.00020496,-0.00000083,0.00016628,0.00000889,-0.00000004,0.00021759,
 -0.00043024,-0.00000034,-0.00117058,-0.00045580,0.00000142,0.00421916,
 -0.00241878,0.00000571,-0.01597425,-0.01886403,0.00003129,-0.11739894,
 -0.27201511,0.00028204,0.00249560,0.00331991,-0.00000199,0.00058480,0.
 00145296,0.00000314,0.00012632,0.00003903,0.00000006,-0.00004540,0.000
 02358,0.00000006,-0.00002151,0.00005041,-0.00000023,0.00060595,0.00021
 635,-0.00000099,-0.00001015,0.00000964,0.,-0.00000762,-0.00000436,0.00
 000001,-0.00000675,0.00000237,0.,-0.00000747,-0.00000858,0.,0.00000753
 ,0.00000118,0.,-0.00001353,-0.00001729,0.00000010,-0.00006598,-0.00011
 463,0.00000012,0.00006058,0.00001591,0.00000008,0.00017008,0.00121714,
 -0.00000510,0.12646190,0.28700564,-0.00000005,0.,-0.00001006,0.0000000
 5,-0.00000001,-0.00000652,0.,0.00000008,-0.00002279,0.00000005,0.00000
 001,0.00002462,-0.00000003,-0.00000002,-0.00001135,0.00000003,0.000000
 05,0.00002221,0.00000003,0.00000005,0.00007540,-0.00000066,-0.00000067
 ,-0.00083671,0.00000010,0.00000005,0.00011153,-0.00000072,-0.00000039,
 -0.00063571,0.00000061,0.00000036,0.00017585,0.00000408,0.00000663,0.0
 0844241,0.00000729,0.00000722,0.00430246,0.00016177,0.00028219,-0.0385
 2003,0.00000848,0.00002175,0.00322477,0.00000792,0.00000236,0.00581484
 ,-0.00000005,0.00000125,0.00023176,0.00000012,0.00000006,0.00005514,0.
 00000017,-0.00000038,-0.00024986,-0.00000054,-0.00000123,-0.00042432,0
 .00000003,-0.00000001,0.00000389,0.00000002,0.,0.00000195,0.00000002,0
 .00000001,0.00000288,0.,0.,-0.00000450,0.,0.00000001,0.00000353,0.0000
 0008,0.00000010,0.00009340,0.,0.00000002,-0.00002860,0.00000010,0.0000
 0014,0.00017099,-0.00000450,-0.00000447,-0.00481396,-0.00018112,-0.000
 31147,0.02618683,-0.00011231,0.00010903,-0.00000044,0.00003344,0.00001
 260,-0.00000008,0.00001045,0.00009641,-0.00000004,-0.00002903,-0.00004
 064,0.00000006,-0.00002232,0.00005716,-0.00000009,0.00001789,0.0000310
 5,0.,0.00006237,0.00001387,-0.00000006,0.00088195,-0.00029256,0.000000
 03,-0.00002012,-0.00023288,-0.00000034,-0.00015325,-0.00010525,0.00000
 034,0.00003123,0.00028827,-0.00000085,-0.00030396,-0.00089340,0.000000
 62,-0.00546670,-0.00158605,0.00000974,-0.01162771,0.02965845,-0.000012
 02,-0.12060171,0.11707692,-0.00003373,0.01281180,-0.01294771,0.0000042
 9,-0.00046500,0.00150918,-0.00000416,-0.00338676,-0.00217541,0.0000046
 6,0.00008708,-0.00008753,-0.00000004,-0.00181255,-0.00282314,0.0000093
 8,0.00003454,0.00001189,-0.00000001,0.00002088,0.00002830,0.00000005,0
 .00001466,0.00000461,0.00000002,-0.00000220,0.00000753,0.,0.00000066,0
 .00002440,0.,0.00005619,-0.00007531,-0.00000004,0.00000308,0.00001397,
 0.00000006,0.00003521,-0.00005724,0.00000004,-0.00062954,0.00126694,-0
 .00000049,0.00126854,-0.00033244,-0.00000331,0.13308081,-0.00003413,0.
 00081522,-0.00000112,0.00017062,0.00004490,-0.00000021,0.00010397,-0.0
 0005620,0.00000002,-0.00011847,-0.00001606,0.00000011,0.00003203,0.000
 07463,-0.00000015,-0.00008291,0.00005583,0.00000006,0.00032621,0.00015
 065,-0.00000038,0.00127825,-0.00051604,-0.00000005,-0.00033441,-0.0003
 7271,-0.00000003,-0.00011502,-0.00006188,0.00000028,0.00001100,0.00021
 278,-0.00000082,-0.00067700,0.00024359,-0.00000006,-0.00019260,0.00142
 937,0.00000355,-0.00258097,0.00315268,0.00000315,0.11715820,-0.2764505
 1,0.00010613,0.01460696,-0.01944223,0.00000852,0.00198030,-0.00032904,
 -0.00000477,0.00106613,-0.00060191,-0.00000002,-0.00037589,-0.00004065
 ,0.00000027,-0.00422581,-0.00252662,0.00001141,-0.00002581,-0.00001523
 ,0.00000006,0.00004186,0.00007598,0.,-0.00000381,0.00000074,0.00000004
 ,-0.00001195,0.00000118,0.00000001,0.00002440,0.00003172,-0.00000002,0
 .00007966,-0.00014358,0.,0.00000790,-0.00001682,0.00000008,0.00004107,
 -0.00002490,0.00000001,-0.00015662,0.00001194,0.00000019,0.00025703,0.
 00085755,-0.00000371,-0.12834331,0.29155261,-0.00000032,-0.00000123,-0
 .00057168,-0.00000021,-0.00000009,-0.00005356,-0.00000004,0.00000003,0
 .00006597,0.00000013,0.00000005,0.00000983,-0.00000006,-0.00000017,-0.
 00007272,0.00000010,-0.00000002,0.00005569,-0.00000032,-0.00000014,-0.
 00000760,-0.00000126,0.00000115,0.00061221,-0.00000026,-0.00000011,-0.
 00071783,0.00000034,0.00000027,0.00017293,-0.00000063,-0.00000103,-0.0
 0077572,0.00000044,0.00000011,-0.00045292,0.00000859,0.00000461,0.0055
 5733,0.00001452,-0.00002151,0.00458186,-0.00003379,0.00010619,-0.03868
 644,-0.00001840,0.00002960,0.00447903,-0.00000455,-0.00000441,-0.00428
 181,0.00000199,0.00000246,0.00036136,0.00000020,0.00000005,-0.00005625
 ,0.00001053,0.00001034,0.00740668,0.00000002,0.00000003,0.00002983,0.0
 0000004,0.00000002,0.00012190,0.00000003,0.00000004,0.00005072,0.00000
 001,0.,0.00000353,0.,-0.00000002,0.00002409,-0.00000016,0.00000012,-0.
 00007358,0.00000006,0.00000008,0.00009340,-0.00000004,0.00000009,0.000
 03011,0.00000069,-0.00000090,0.00009754,-0.00000379,-0.00000326,-0.003
 40988,0.00002212,-0.00012221,0.02386789,-0.01103120,-0.02996738,0.0000
 3662,-0.00550215,0.00143509,0.00000728,-0.00033789,0.00088073,-0.00000
 081,0.00003783,-0.00029208,-0.00000038,-0.00015800,0.00010316,0.000000
 17,-0.00003264,0.00024028,-0.00000072,0.00090274,0.00032346,-0.0000004
 9,0.00006981,-0.00001563,-0.00000005,0.00001678,-0.00003190,0.00000006
 ,-0.00002033,-0.00005923,0.,-0.00003249,0.00004029,0.,0.00001478,-0.00
 009486,0.00000012,0.00003743,-0.00001276,-0.00000006,-0.00011023,-0.00
 012919,-0.00000025,-0.00340959,0.00211426,0.00000114,-0.00038897,-0.00
 151049,-0.00000173,0.01283263,0.01365070,-0.00001763,-0.11557606,-0.11
 357275,0.00015232,-0.00196635,0.00283535,0.00000484,0.00007693,0.00009
 009,-0.00000018,0.00126670,0.00034134,-0.00000386,-0.00060506,-0.00128
 037,0.00000159,0.00003483,0.00005854,-0.00000005,0.00000354,-0.0000135
 3,0.00000008,0.00005619,0.00007966,-0.00000016,0.00000174,-0.00002505,
 0.00000004,-0.00000229,-0.00000760,0.00000001,0.00001467,-0.00000431,0
 .00000003,0.00002244,-0.00002946,0.00000010,0.00003421,-0.00001081,0.,
 -0.00381763,0.00009312,0.00000402,0.12756761,0.00227204,0.00255620,-0.
 00000007,0.00004164,0.00146482,0.00000334,0.00066433,0.00027752,-0.000
 00111,-0.00001481,0.00020618,-0.00000080,0.00011293,-0.00005713,0.0000
 0010,0.00034181,-0.00036019,-0.00000056,-0.00124734,-0.00053683,0.0000
 0190,-0.00032797,0.00014321,0.00000013,0.00008206,0.00005694,-0.000000
 06,-0.00003409,0.00007264,-0.00000009,0.00011811,-0.00001260,-0.000000
 07,-0.00010243,-0.00006053,0.00000018,-0.00017078,0.00004091,0.0000000
 5,0.00001397,0.00081314,-0.00000115,-0.00112729,-0.00057909,0.00000164
 ,-0.00198161,-0.00040507,-0.00000168,-0.01390398,-0.01946306,0.0000303
 5,-0.11365403,-0.28147587,0.00028683,0.00423803,-0.00237283,0.00000481
 ,0.00037845,-0.00003050,-0.00000031,-0.00024813,0.00085938,-0.00000333
 ,0.00014318,-0.00001254,-0.00000002,-0.00003977,-0.00002452,0.00000008
 ,-0.00000746,-0.00001729,0.00000010,-0.00007531,-0.00014358,0.00000012
 ,-0.00002505,0.00003064,0.00000001,0.00001188,0.00000128,0.,0.00000411
 ,0.00000073,0.00000004,-0.00004303,0.00007442,0.00000007,0.00002689,-0
 .00001490,0.00000002,-0.00021771,0.00190302,-0.00000013,0.12477135,0.2
 9706549,0.00001007,0.00002459,0.00458182,0.00000843,0.00000227,0.00555
 734,-0.00000063,-0.00000128,-0.00045292,-0.00000061,-0.00000058,-0.000
 77572,0.00000016,0.00000011,0.00017293,-0.00000081,-0.00000048,-0.0007
 1783,0.00000080,0.00000070,0.00061221,0.00000021,-0.00000011,-0.000007
 60,-0.00000004,0.00000002,0.00005569,-0.00000001,-0.00000007,-0.000072
 72,-0.00000006,-0.00000001,0.00000983,0.00000012,0.00000018,0.00006597
 ,0.00000007,-0.00000007,-0.00005356,-0.00000036,-0.00000104,-0.0005716
 8,0.00000381,-0.00000084,0.00036136,-0.00000135,-0.00000204,-0.0042818
 1,0.00000506,0.00000927,0.00447903,0.00015239,0.00028677,-0.03868673,0
 .00000368,0.00000588,0.00740669,-0.00000041,-0.00000009,-0.00005625,-0
 .00000337,-0.00000378,-0.00340988,0.00000042,0.00000107,0.00009754,0.0
 0000003,0.,0.00003011,0.00000007,0.00000010,0.00009340,-0.00000004,0.,
 -0.00007358,0.00000004,0.00000001,0.00002409,0.,0.,0.00000353,0.000000
 02,0.00000004,0.00005072,0.00000011,0.00000006,0.00012190,-0.00000003,
 0.00000005,0.00002983,0.00000428,-0.00000037,0.00153806,-0.00018205,-0
 .00032037,0.02386821\\-0.00003224,-0.00000068,0.00000003,-0.00001101,-
 0.00000544,0.00000001,0.00003507,0.00000038,-0.00000003,-0.00001113,0.
 00000520,0.,-0.00003225,-0.00000002,0.00000002,0.00001558,0.00000578,-
 0.00000002,0.00006338,0.00000339,-0.00000005,-0.00006344,0.00000201,0.
 00000005,-0.00001570,0.00000544,0.,0.00003224,0.00000068,-0.00000003,0
 .00001101,0.00000544,-0.00000001,-0.00003507,-0.00000038,0.00000003,0.
 00001113,-0.00000520,0.,0.00003225,0.00000002,-0.00000002,-0.00001558,
 -0.00000578,0.00000002,-0.00006338,-0.00000339,0.00000005,0.00006344,-
 0.00000201,-0.00000005,0.00001570,-0.00000544,0.,-0.00002521,-0.000000
 27,0.00000002,0.00002521,0.00000027,-0.00000002,0.00001000,0.,0.,0.000
 00271,0.00000050,0.,0.00000272,-0.00000044,0.,0.00001000,0.00000023,0.
 ,0.00000673,-0.00000662,0.,-0.00000658,-0.00000677,0.00000001,-0.00001
 000,0.,0.,-0.00000271,-0.00000050,0.,-0.00000272,0.00000044,0.,-0.0000
 1000,-0.00000023,0.,-0.00000673,0.00000662,0.,0.00000658,0.00000677,-0
 .00000001\\\@
 The archive entry for this job was punched.


 E PUR SI MUOVE    -- GALILEO GALILEI
 Job cpu time:       0 days  1 hours  2 minutes 34.1 seconds.
 Elapsed time:       0 days  0 hours  7 minutes 54.4 seconds.
 File lengths (MBytes):  RWF=    204 Int=      0 D2E=      0 Chk=     10 Scr=      2
 Normal termination of Gaussian 16 at Mon Mar 11 20:45:39 2024.
