 Entering Gaussian System, Link 0=g16
 Initial command:
 /opt/g16/l1.exe "/tmp/Gau-1119153.inp" -scrdir="/tmp/"
 Entering Link 1 = /opt/g16/l1.exe PID=   1119155.
  
 Copyright (c) 1988-2019, Gaussian, Inc.  All Rights Reserved.
  
 This is part of the Gaussian(R) 16 program.  It is based on
 the Gaussian(R) 09 system (copyright 2009, Gaussian, Inc.),
 the Gaussian(R) 03 system (copyright 2003, Gaussian, Inc.),
 the Gaussian(R) 98 system (copyright 1998, Gaussian, Inc.),
 the Gaussian(R) 94 system (copyright 1995, Gaussian, Inc.),
 the Gaussian 92(TM) system (copyright 1992, Gaussian, Inc.),
 the Gaussian 90(TM) system (copyright 1990, Gaussian, Inc.),
 the Gaussian 88(TM) system (copyright 1988, Gaussian, Inc.),
 the Gaussian 86(TM) system (copyright 1986, Carnegie Mellon
 University), and the Gaussian 82(TM) system (copyright 1983,
 Carnegie Mellon University). Gaussian is a federally registered
 trademark of Gaussian, Inc.
  
 This software contains proprietary and confidential information,
 including trade secrets, belonging to Gaussian, Inc.
  
 This software is provided under written license and may be
 used, copied, transmitted, or stored only in accord with that
 written license.
  
 The following legend is applicable only to US Government
 contracts under FAR:
  
                    RESTRICTED RIGHTS LEGEND
  
 Use, reproduction and disclosure by the US Government is
 subject to restrictions as set forth in subparagraphs (a)
 and (c) of the Commercial Computer Software - Restricted
 Rights clause in FAR 52.227-19.
  
 Gaussian, Inc.
 340 Quinnipiac St., Bldg. 40, Wallingford CT 06492
  
  
 ---------------------------------------------------------------
 Warning -- This program may not be used in any manner that
 competes with the business of Gaussian, Inc. or will provide
 assistance to any competitor of Gaussian, Inc.  The licensee
 of this program is prohibited from giving any competitor of
 Gaussian, Inc. access to this program.  By using this program,
 the user acknowledges that Gaussian, Inc. is engaged in the
 business of creating and licensing software in the field of
 computational chemistry and represents and warrants to the
 licensee that it is not a competitor of Gaussian, Inc. and that
 it will not use this program in any manner prohibited above.
 ---------------------------------------------------------------
  

 Cite this work as:
 Gaussian 16, Revision C.01,
 M. J. Frisch, G. W. Trucks, H. B. Schlegel, G. E. Scuseria, 
 M. A. Robb, J. R. Cheeseman, G. Scalmani, V. Barone, 
 G. A. Petersson, H. Nakatsuji, X. Li, M. Caricato, A. V. Marenich, 
 J. Bloino, B. G. Janesko, R. Gomperts, B. Mennucci, H. P. Hratchian, 
 J. V. Ortiz, A. F. Izmaylov, J. L. Sonnenberg, D. Williams-Young, 
 F. Ding, F. Lipparini, F. Egidi, J. Goings, B. Peng, A. Petrone, 
 T. Henderson, D. Ranasinghe, V. G. Zakrzewski, J. Gao, N. Rega, 
 G. Zheng, W. Liang, M. Hada, M. Ehara, K. Toyota, R. Fukuda, 
 J. Hasegawa, M. Ishida, T. Nakajima, Y. Honda, O. Kitao, H. Nakai, 
 T. Vreven, K. Throssell, J. A. Montgomery, Jr., J. E. Peralta, 
 F. Ogliaro, M. J. Bearpark, J. J. Heyd, E. N. Brothers, K. N. Kudin, 
 V. N. Staroverov, T. A. Keith, R. Kobayashi, J. Normand, 
 K. Raghavachari, A. P. Rendell, J. C. Burant, S. S. Iyengar, 
 J. Tomasi, M. Cossi, J. M. Millam, M. Klene, C. Adamo, R. Cammi, 
 J. W. Ochterski, R. L. Martin, K. Morokuma, O. Farkas, 
 J. B. Foresman, and D. J. Fox, Gaussian, Inc., Wallingford CT, 2019.
 
 ******************************************
 Gaussian 16:  ES64L-G16RevC.01  3-Jul-2019
                 8-Oct-2024 
 ******************************************
 %nprocshared=8
 Will use up to    8 processors via shared memory.
 %mem=10400MB
 ----------------------------------------------------------------------
 #N opt freq B3LYP/def2SVPP symm=veryloose em=gd3bj scale=0.961 press=0
 .987
 ----------------------------------------------------------------------
 1/18=20,19=15,26=3,38=1,113=-987000,114=961000/1,3;
 2/9=110,12=2,17=2,18=2,40=1/2;
 3/5=43,7=202,11=2,25=1,30=1,71=1,74=-5,124=41/1,2,3;
 4//1;
 5/5=2,38=5/2;
 6/7=2,8=2,9=2,10=2,28=1/1;
 7//1,2,3,16;
 1/18=20,19=15,26=3/3(2);
 2/9=110/2;
 99//99;
 2/9=110/2;
 3/5=43,7=202,11=2,25=1,30=1,71=1,74=-5,124=41/1,2,3;
 4/5=5,16=3,69=1/1;
 5/5=2,38=5/2;
 7//1,2,3,16;
 1/18=20,19=15,26=3/3(-5);
 2/9=110/2;
 6/7=2,8=2,9=2,10=2,19=2,28=1/1;
 99/9=1/99;
 ------------------------------------------
 c1ccc2cc3c(ccc4c5cc6ccccc6cc5ccc34)cc2c1_2
 ------------------------------------------
 Symbolic Z-matrix:
 Charge =  0 Multiplicity = 1
 C                    -7.0106    0.0238   -0.5873 
 C                    -6.7506   -0.8863    0.432 
 C                    -5.4333   -1.1464    0.8132 
 C                    -4.358    -0.4992    0.1796 
 C                    -3.0213   -0.7473    0.5491 
 C                    -1.9095   -0.1117   -0.069 
 C                    -2.2147    0.8051   -1.099 
 C                    -1.1841    1.4699   -1.7552 
 C                     0.1472    1.2433   -1.4096 
 C                     0.5251    0.3429   -0.3924 
 C                     1.9095    0.1117   -0.0381 
 C                     3.0213    0.7473   -0.6563 
 C                     4.358     0.4992   -0.2868 
 C                     5.4333    1.1464   -0.9204 
 C                     6.7506    0.8863   -0.5391 
 C                     7.0106   -0.0238    0.4802 
 C                     5.9531   -0.6735    1.1178 
 C                     4.6228   -0.4195    0.7423 
 C                     3.5459   -1.0597    1.368 
 C                     2.2147   -0.8051    0.9918 
 C                     1.1841   -1.4699    1.648 
 C                    -0.1472   -1.2432    1.3024 
 C                    -0.5251   -0.3428    0.2853 
 C                    -3.5459    1.0597   -1.4752 
 C                    -4.6228    0.4195   -0.8494 
 C                    -5.9532    0.6735   -1.225 
 H                    -8.0348    0.229    -0.887 
 H                    -7.5713   -1.3946    0.9313 
 H                    -5.2504   -1.8613    1.6124 
 H                    -2.858    -1.4641    1.3489 
 H                    -1.3995    2.18     -2.5513 
 H                     0.89      1.8026   -1.9706 
 H                     2.858     1.4641   -1.4561 
 H                     5.2504    1.8613   -1.7195 
 H                     7.5713    1.3945   -1.0384 
 H                     8.0348   -0.229     0.7799 
 H                     6.1743   -1.3822    1.9128 
 H                     3.7489   -1.7723    2.1661 
 H                     1.3995   -2.1799    2.4441 
 H                    -0.89     -1.8025    1.8635 
 H                    -3.7489    1.7723   -2.2732 
 H                    -6.1743    1.3821   -2.0199 
 

 GradGradGradGradGradGradGradGradGradGradGradGradGradGradGradGradGradGrad
 Berny optimization.
 Initialization pass.
                           ----------------------------
                           !    Initial Parameters    !
                           ! (Angstroms and Degrees)  !
 --------------------------                            --------------------------
 ! Name  Definition              Value          Derivative Info.                !
 --------------------------------------------------------------------------------
 ! R1    R(1,2)                  1.391          estimate D2E/DX2                !
 ! R2    R(1,26)                 1.3953         estimate D2E/DX2                !
 ! R3    R(1,27)                 1.0867         estimate D2E/DX2                !
 ! R4    R(2,3)                  1.3958         estimate D2E/DX2                !
 ! R5    R(2,28)                 1.0868         estimate D2E/DX2                !
 ! R6    R(3,4)                  1.4059         estimate D2E/DX2                !
 ! R7    R(3,29)                 1.0878         estimate D2E/DX2                !
 ! R8    R(4,5)                  1.4088         estimate D2E/DX2                !
 ! R9    R(4,25)                 1.4046         estimate D2E/DX2                !
 ! R10   R(5,6)                  1.422          estimate D2E/DX2                !
 ! R11   R(5,30)                 1.0863         estimate D2E/DX2                !
 ! R12   R(6,7)                  1.4123         estimate D2E/DX2                !
 ! R13   R(6,23)                 1.4476         estimate D2E/DX2                !
 ! R14   R(7,8)                  1.3909         estimate D2E/DX2                !
 ! R15   R(7,24)                 1.4066         estimate D2E/DX2                !
 ! R16   R(8,9)                  1.394          estimate D2E/DX2                !
 ! R17   R(8,31)                 1.0883         estimate D2E/DX2                !
 ! R18   R(9,10)                 1.41           estimate D2E/DX2                !
 ! R19   R(9,32)                 1.086          estimate D2E/DX2                !
 ! R20   R(10,11)                1.4476         estimate D2E/DX2                !
 ! R21   R(10,23)                1.4256         estimate D2E/DX2                !
 ! R22   R(11,12)                1.4221         estimate D2E/DX2                !
 ! R23   R(11,20)                1.4122         estimate D2E/DX2                !
 ! R24   R(12,13)                1.4088         estimate D2E/DX2                !
 ! R25   R(12,33)                1.0863         estimate D2E/DX2                !
 ! R26   R(13,14)                1.4059         estimate D2E/DX2                !
 ! R27   R(13,18)                1.4047         estimate D2E/DX2                !
 ! R28   R(14,15)                1.3958         estimate D2E/DX2                !
 ! R29   R(14,34)                1.0877         estimate D2E/DX2                !
 ! R30   R(15,16)                1.391          estimate D2E/DX2                !
 ! R31   R(15,35)                1.0868         estimate D2E/DX2                !
 ! R32   R(16,17)                1.3953         estimate D2E/DX2                !
 ! R33   R(16,36)                1.0867         estimate D2E/DX2                !
 ! R34   R(17,18)                1.4054         estimate D2E/DX2                !
 ! R35   R(17,37)                1.0878         estimate D2E/DX2                !
 ! R36   R(18,19)                1.4004         estimate D2E/DX2                !
 ! R37   R(19,20)                1.4066         estimate D2E/DX2                !
 ! R38   R(19,38)                1.089          estimate D2E/DX2                !
 ! R39   R(20,21)                1.3909         estimate D2E/DX2                !
 ! R40   R(21,22)                1.394          estimate D2E/DX2                !
 ! R41   R(21,39)                1.0882         estimate D2E/DX2                !
 ! R42   R(22,23)                1.41           estimate D2E/DX2                !
 ! R43   R(22,40)                1.086          estimate D2E/DX2                !
 ! R44   R(24,25)                1.4004         estimate D2E/DX2                !
 ! R45   R(24,41)                1.0889         estimate D2E/DX2                !
 ! R46   R(25,26)                1.4055         estimate D2E/DX2                !
 ! R47   R(26,42)                1.0876         estimate D2E/DX2                !
 ! A1    A(2,1,26)             119.862          estimate D2E/DX2                !
 ! A2    A(2,1,27)             120.1198         estimate D2E/DX2                !
 ! A3    A(26,1,27)            120.0182         estimate D2E/DX2                !
 ! A4    A(1,2,3)              119.8979         estimate D2E/DX2                !
 ! A5    A(1,2,28)             120.0993         estimate D2E/DX2                !
 ! A6    A(3,2,28)             120.0028         estimate D2E/DX2                !
 ! A7    A(2,3,4)              120.8616         estimate D2E/DX2                !
 ! A8    A(2,3,29)             118.8036         estimate D2E/DX2                !
 ! A9    A(4,3,29)             120.3348         estimate D2E/DX2                !
 ! A10   A(3,4,5)              121.7632         estimate D2E/DX2                !
 ! A11   A(3,4,25)             119.1469         estimate D2E/DX2                !
 ! A12   A(5,4,25)             119.0898         estimate D2E/DX2                !
 ! A13   A(4,5,6)              123.305          estimate D2E/DX2                !
 ! A14   A(4,5,30)             116.8663         estimate D2E/DX2                !
 ! A15   A(6,5,30)             119.8286         estimate D2E/DX2                !
 ! A16   A(5,6,7)              115.9891         estimate D2E/DX2                !
 ! A17   A(5,6,23)             124.7488         estimate D2E/DX2                !
 ! A18   A(7,6,23)             119.2621         estimate D2E/DX2                !
 ! A19   A(6,7,8)              119.6179         estimate D2E/DX2                !
 ! A20   A(6,7,24)             121.137          estimate D2E/DX2                !
 ! A21   A(8,7,24)             119.2451         estimate D2E/DX2                !
 ! A22   A(7,8,9)              120.8621         estimate D2E/DX2                !
 ! A23   A(7,8,31)             120.6843         estimate D2E/DX2                !
 ! A24   A(9,8,31)             118.4537         estimate D2E/DX2                !
 ! A25   A(8,9,10)             122.5892         estimate D2E/DX2                !
 ! A26   A(8,9,32)             116.1969         estimate D2E/DX2                !
 ! A27   A(10,9,32)            121.2138         estimate D2E/DX2                !
 ! A28   A(9,10,11)            122.3339         estimate D2E/DX2                !
 ! A29   A(9,10,23)            116.9132         estimate D2E/DX2                !
 ! A30   A(11,10,23)           120.7528         estimate D2E/DX2                !
 ! A31   A(10,11,12)           124.7438         estimate D2E/DX2                !
 ! A32   A(10,11,20)           119.2652         estimate D2E/DX2                !
 ! A33   A(12,11,20)           115.991          estimate D2E/DX2                !
 ! A34   A(11,12,13)           123.3026         estimate D2E/DX2                !
 ! A35   A(11,12,33)           119.8311         estimate D2E/DX2                !
 ! A36   A(13,12,33)           116.8663         estimate D2E/DX2                !
 ! A37   A(12,13,14)           121.7632         estimate D2E/DX2                !
 ! A38   A(12,13,18)           119.0894         estimate D2E/DX2                !
 ! A39   A(14,13,18)           119.1474         estimate D2E/DX2                !
 ! A40   A(13,14,15)           120.8588         estimate D2E/DX2                !
 ! A41   A(13,14,34)           120.3343         estimate D2E/DX2                !
 ! A42   A(15,14,34)           118.8069         estimate D2E/DX2                !
 ! A43   A(14,15,16)           119.9008         estimate D2E/DX2                !
 ! A44   A(14,15,35)           120.0025         estimate D2E/DX2                !
 ! A45   A(16,15,35)           120.0967         estimate D2E/DX2                !
 ! A46   A(15,16,17)           119.857          estimate D2E/DX2                !
 ! A47   A(15,16,36)           120.1198         estimate D2E/DX2                !
 ! A48   A(17,16,36)           120.0232         estimate D2E/DX2                !
 ! A49   A(16,17,18)           120.7394         estimate D2E/DX2                !
 ! A50   A(16,17,37)           118.8957         estimate D2E/DX2                !
 ! A51   A(18,17,37)           120.3649         estimate D2E/DX2                !
 ! A52   A(13,18,17)           119.4967         estimate D2E/DX2                !
 ! A53   A(13,18,19)           118.7745         estimate D2E/DX2                !
 ! A54   A(17,18,19)           121.7288         estimate D2E/DX2                !
 ! A55   A(18,19,20)           121.705          estimate D2E/DX2                !
 ! A56   A(18,19,38)           118.8973         estimate D2E/DX2                !
 ! A57   A(20,19,38)           119.3977         estimate D2E/DX2                !
 ! A58   A(11,20,19)           121.1375         estimate D2E/DX2                !
 ! A59   A(11,20,21)           119.6174         estimate D2E/DX2                !
 ! A60   A(19,20,21)           119.2451         estimate D2E/DX2                !
 ! A61   A(20,21,22)           120.8594         estimate D2E/DX2                !
 ! A62   A(20,21,39)           120.6834         estimate D2E/DX2                !
 ! A63   A(22,21,39)           118.4572         estimate D2E/DX2                !
 ! A64   A(21,22,23)           122.5926         estimate D2E/DX2                !
 ! A65   A(21,22,40)           116.1915         estimate D2E/DX2                !
 ! A66   A(23,22,40)           121.2159         estimate D2E/DX2                !
 ! A67   A(6,23,10)            120.7554         estimate D2E/DX2                !
 ! A68   A(6,23,22)            122.332          estimate D2E/DX2                !
 ! A69   A(10,23,22)           116.9126         estimate D2E/DX2                !
 ! A70   A(7,24,25)            121.7026         estimate D2E/DX2                !
 ! A71   A(7,24,41)            119.3983         estimate D2E/DX2                !
 ! A72   A(25,24,41)           118.8992         estimate D2E/DX2                !
 ! A73   A(4,25,24)            118.7765         estimate D2E/DX2                !
 ! A74   A(4,25,26)            119.4986         estimate D2E/DX2                !
 ! A75   A(24,25,26)           121.7249         estimate D2E/DX2                !
 ! A76   A(1,26,25)            120.7328         estimate D2E/DX2                !
 ! A77   A(1,26,42)            118.9044         estimate D2E/DX2                !
 ! A78   A(25,26,42)           120.3628         estimate D2E/DX2                !
 ! D1    D(26,1,2,3)            -0.002          estimate D2E/DX2                !
 ! D2    D(26,1,2,28)         -179.9964         estimate D2E/DX2                !
 ! D3    D(27,1,2,3)           179.998          estimate D2E/DX2                !
 ! D4    D(27,1,2,28)            0.0035         estimate D2E/DX2                !
 ! D5    D(2,1,26,25)           -0.003          estimate D2E/DX2                !
 ! D6    D(2,1,26,42)         -179.997          estimate D2E/DX2                !
 ! D7    D(27,1,26,25)         179.997          estimate D2E/DX2                !
 ! D8    D(27,1,26,42)           0.003          estimate D2E/DX2                !
 ! D9    D(1,2,3,4)              0.0038         estimate D2E/DX2                !
 ! D10   D(1,2,3,29)           179.9974         estimate D2E/DX2                !
 ! D11   D(28,2,3,4)           179.9983         estimate D2E/DX2                !
 ! D12   D(28,2,3,29)           -0.0082         estimate D2E/DX2                !
 ! D13   D(2,3,4,5)            179.9972         estimate D2E/DX2                !
 ! D14   D(2,3,4,25)            -0.0006         estimate D2E/DX2                !
 ! D15   D(29,3,4,5)             0.0037         estimate D2E/DX2                !
 ! D16   D(29,3,4,25)         -179.9941         estimate D2E/DX2                !
 ! D17   D(3,4,5,6)           -179.9966         estimate D2E/DX2                !
 ! D18   D(3,4,5,30)            -0.0009         estimate D2E/DX2                !
 ! D19   D(25,4,5,6)             0.0013         estimate D2E/DX2                !
 ! D20   D(25,4,5,30)          179.997          estimate D2E/DX2                !
 ! D21   D(3,4,25,24)         -179.9997         estimate D2E/DX2                !
 ! D22   D(3,4,25,26)           -0.0043         estimate D2E/DX2                !
 ! D23   D(5,4,25,24)            0.0024         estimate D2E/DX2                !
 ! D24   D(5,4,25,26)          179.9978         estimate D2E/DX2                !
 ! D25   D(4,5,6,7)             -0.0062         estimate D2E/DX2                !
 ! D26   D(4,5,6,23)           179.999          estimate D2E/DX2                !
 ! D27   D(30,5,6,7)           179.9983         estimate D2E/DX2                !
 ! D28   D(30,5,6,23)            0.0034         estimate D2E/DX2                !
 ! D29   D(5,6,7,8)           -179.9965         estimate D2E/DX2                !
 ! D30   D(5,6,7,24)             0.0075         estimate D2E/DX2                !
 ! D31   D(23,6,7,8)            -0.0013         estimate D2E/DX2                !
 ! D32   D(23,6,7,24)         -179.9973         estimate D2E/DX2                !
 ! D33   D(5,6,23,10)          179.9978         estimate D2E/DX2                !
 ! D34   D(5,6,23,22)           -0.001          estimate D2E/DX2                !
 ! D35   D(7,6,23,10)            0.0031         estimate D2E/DX2                !
 ! D36   D(7,6,23,22)         -179.9957         estimate D2E/DX2                !
 ! D37   D(6,7,8,9)             -0.0016         estimate D2E/DX2                !
 ! D38   D(6,7,8,31)          -179.9935         estimate D2E/DX2                !
 ! D39   D(24,7,8,9)           179.9945         estimate D2E/DX2                !
 ! D40   D(24,7,8,31)            0.0026         estimate D2E/DX2                !
 ! D41   D(6,7,24,25)           -0.0042         estimate D2E/DX2                !
 ! D42   D(6,7,24,41)          179.9955         estimate D2E/DX2                !
 ! D43   D(8,7,24,25)          179.9997         estimate D2E/DX2                !
 ! D44   D(8,7,24,41)           -0.0005         estimate D2E/DX2                !
 ! D45   D(7,8,9,10)             0.0029         estimate D2E/DX2                !
 ! D46   D(7,8,9,32)          -179.9973         estimate D2E/DX2                !
 ! D47   D(31,8,9,10)          179.995          estimate D2E/DX2                !
 ! D48   D(31,8,9,32)           -0.0052         estimate D2E/DX2                !
 ! D49   D(8,9,10,11)          179.9935         estimate D2E/DX2                !
 ! D50   D(8,9,10,23)           -0.0011         estimate D2E/DX2                !
 ! D51   D(32,9,10,11)          -0.0063         estimate D2E/DX2                !
 ! D52   D(32,9,10,23)         179.9991         estimate D2E/DX2                !
 ! D53   D(9,10,11,12)           0.0048         estimate D2E/DX2                !
 ! D54   D(9,10,11,20)        -179.9978         estimate D2E/DX2                !
 ! D55   D(23,10,11,12)        179.9992         estimate D2E/DX2                !
 ! D56   D(23,10,11,20)         -0.0034         estimate D2E/DX2                !
 ! D57   D(9,10,23,6)           -0.0019         estimate D2E/DX2                !
 ! D58   D(9,10,23,22)         179.9969         estimate D2E/DX2                !
 ! D59   D(11,10,23,6)        -179.9966         estimate D2E/DX2                !
 ! D60   D(11,10,23,22)          0.0023         estimate D2E/DX2                !
 ! D61   D(10,11,12,13)        179.9975         estimate D2E/DX2                !
 ! D62   D(10,11,12,33)         -0.0035         estimate D2E/DX2                !
 ! D63   D(20,11,12,13)          0.0            estimate D2E/DX2                !
 ! D64   D(20,11,12,33)        179.9989         estimate D2E/DX2                !
 ! D65   D(10,11,20,19)       -179.9992         estimate D2E/DX2                !
 ! D66   D(10,11,20,21)          0.0016         estimate D2E/DX2                !
 ! D67   D(12,11,20,19)         -0.0015         estimate D2E/DX2                !
 ! D68   D(12,11,20,21)        179.9993         estimate D2E/DX2                !
 ! D69   D(11,12,13,14)        179.9998         estimate D2E/DX2                !
 ! D70   D(11,12,13,18)         -0.0012         estimate D2E/DX2                !
 ! D71   D(33,12,13,14)          0.0009         estimate D2E/DX2                !
 ! D72   D(33,12,13,18)        179.9999         estimate D2E/DX2                !
 ! D73   D(12,13,14,15)        179.9996         estimate D2E/DX2                !
 ! D74   D(12,13,14,34)          0.0004         estimate D2E/DX2                !
 ! D75   D(18,13,14,15)          0.0005         estimate D2E/DX2                !
 ! D76   D(18,13,14,34)       -179.9987         estimate D2E/DX2                !
 ! D77   D(12,13,18,17)        179.9993         estimate D2E/DX2                !
 ! D78   D(12,13,18,19)          0.0037         estimate D2E/DX2                !
 ! D79   D(14,13,18,17)         -0.0017         estimate D2E/DX2                !
 ! D80   D(14,13,18,19)       -179.9972         estimate D2E/DX2                !
 ! D81   D(13,14,15,16)         -0.0006         estimate D2E/DX2                !
 ! D82   D(13,14,15,35)        179.9973         estimate D2E/DX2                !
 ! D83   D(34,14,15,16)        179.9986         estimate D2E/DX2                !
 ! D84   D(34,14,15,35)         -0.0035         estimate D2E/DX2                !
 ! D85   D(14,15,16,17)          0.0018         estimate D2E/DX2                !
 ! D86   D(14,15,16,36)        179.9988         estimate D2E/DX2                !
 ! D87   D(35,15,16,17)       -179.9961         estimate D2E/DX2                !
 ! D88   D(35,15,16,36)          0.001          estimate D2E/DX2                !
 ! D89   D(15,16,17,18)         -0.0029         estimate D2E/DX2                !
 ! D90   D(15,16,17,37)        179.9963         estimate D2E/DX2                !
 ! D91   D(36,16,17,18)        180.0            estimate D2E/DX2                !
 ! D92   D(36,16,17,37)         -0.0008         estimate D2E/DX2                !
 ! D93   D(16,17,18,13)          0.0029         estimate D2E/DX2                !
 ! D94   D(16,17,18,19)        179.9983         estimate D2E/DX2                !
 ! D95   D(37,17,18,13)       -179.9963         estimate D2E/DX2                !
 ! D96   D(37,17,18,19)         -0.0009         estimate D2E/DX2                !
 ! D97   D(13,18,19,20)         -0.0053         estimate D2E/DX2                !
 ! D98   D(13,18,19,38)       -179.9984         estimate D2E/DX2                !
 ! D99   D(17,18,19,20)        179.9992         estimate D2E/DX2                !
 ! D100  D(17,18,19,38)          0.0062         estimate D2E/DX2                !
 ! D101  D(18,19,20,11)          0.0043         estimate D2E/DX2                !
 ! D102  D(18,19,20,21)       -179.9965         estimate D2E/DX2                !
 ! D103  D(38,19,20,11)        179.9973         estimate D2E/DX2                !
 ! D104  D(38,19,20,21)         -0.0035         estimate D2E/DX2                !
 ! D105  D(11,20,21,22)          0.0012         estimate D2E/DX2                !
 ! D106  D(11,20,21,39)       -179.9988         estimate D2E/DX2                !
 ! D107  D(19,20,21,22)       -179.998          estimate D2E/DX2                !
 ! D108  D(19,20,21,39)          0.002          estimate D2E/DX2                !
 ! D109  D(20,21,22,23)         -0.0024         estimate D2E/DX2                !
 ! D110  D(20,21,22,40)       -179.9984         estimate D2E/DX2                !
 ! D111  D(39,21,22,23)        179.9977         estimate D2E/DX2                !
 ! D112  D(39,21,22,40)          0.0016         estimate D2E/DX2                !
 ! D113  D(21,22,23,6)         179.9994         estimate D2E/DX2                !
 ! D114  D(21,22,23,10)          0.0006         estimate D2E/DX2                !
 ! D115  D(40,22,23,6)          -0.0047         estimate D2E/DX2                !
 ! D116  D(40,22,23,10)        179.9965         estimate D2E/DX2                !
 ! D117  D(7,24,25,4)           -0.001          estimate D2E/DX2                !
 ! D118  D(7,24,25,26)        -179.9962         estimate D2E/DX2                !
 ! D119  D(41,24,25,4)         179.9993         estimate D2E/DX2                !
 ! D120  D(41,24,25,26)          0.0041         estimate D2E/DX2                !
 ! D121  D(4,25,26,1)            0.0062         estimate D2E/DX2                !
 ! D122  D(4,25,26,42)        -179.9999         estimate D2E/DX2                !
 ! D123  D(24,25,26,1)        -179.9986         estimate D2E/DX2                !
 ! D124  D(24,25,26,42)         -0.0047         estimate D2E/DX2                !
 --------------------------------------------------------------------------------
 Trust Radius=3.00D-01 FncErr=1.00D-07 GrdErr=1.00D-06 EigMax=2.50D+02 EigMin=1.00D-04
 Number of steps in this run=    252 maximum allowed number of steps=    252.
 GradGradGradGradGradGradGradGradGradGradGradGradGradGradGradGradGradGrad

                          Input orientation:                          
 ---------------------------------------------------------------------
 Center     Atomic      Atomic             Coordinates (Angstroms)
 Number     Number       Type             X           Y           Z
 ---------------------------------------------------------------------
      1          6           0       -7.010600    0.023800   -0.587300
      2          6           0       -6.750600   -0.886300    0.432000
      3          6           0       -5.433300   -1.146400    0.813200
      4          6           0       -4.358000   -0.499200    0.179600
      5          6           0       -3.021300   -0.747300    0.549100
      6          6           0       -1.909500   -0.111700   -0.069000
      7          6           0       -2.214700    0.805100   -1.099000
      8          6           0       -1.184100    1.469900   -1.755200
      9          6           0        0.147200    1.243300   -1.409600
     10          6           0        0.525100    0.342900   -0.392400
     11          6           0        1.909500    0.111700   -0.038100
     12          6           0        3.021300    0.747300   -0.656300
     13          6           0        4.358000    0.499200   -0.286800
     14          6           0        5.433300    1.146400   -0.920400
     15          6           0        6.750600    0.886300   -0.539100
     16          6           0        7.010600   -0.023800    0.480200
     17          6           0        5.953100   -0.673500    1.117800
     18          6           0        4.622800   -0.419500    0.742300
     19          6           0        3.545900   -1.059700    1.368000
     20          6           0        2.214700   -0.805100    0.991800
     21          6           0        1.184100   -1.469900    1.648000
     22          6           0       -0.147200   -1.243200    1.302400
     23          6           0       -0.525100   -0.342800    0.285300
     24          6           0       -3.545900    1.059700   -1.475200
     25          6           0       -4.622800    0.419500   -0.849400
     26          6           0       -5.953200    0.673500   -1.225000
     27          1           0       -8.034800    0.229000   -0.887000
     28          1           0       -7.571300   -1.394600    0.931300
     29          1           0       -5.250400   -1.861300    1.612400
     30          1           0       -2.858000   -1.464100    1.348900
     31          1           0       -1.399500    2.180000   -2.551300
     32          1           0        0.890000    1.802600   -1.970600
     33          1           0        2.858000    1.464100   -1.456100
     34          1           0        5.250400    1.861300   -1.719500
     35          1           0        7.571300    1.394500   -1.038400
     36          1           0        8.034800   -0.229000    0.779900
     37          1           0        6.174300   -1.382200    1.912800
     38          1           0        3.748900   -1.772300    2.166100
     39          1           0        1.399500   -2.179900    2.444100
     40          1           0       -0.890000   -1.802500    1.863500
     41          1           0       -3.748900    1.772300   -2.273200
     42          1           0       -6.174300    1.382100   -2.019900
 ---------------------------------------------------------------------
                    Distance matrix (angstroms):
                    1          2          3          4          5
     1  C    0.000000
     2  C    1.390990   0.000000
     3  C    2.412186   1.395795   0.000000
     4  C    2.810329   2.436819   1.405911   0.000000
     5  C    4.219066   3.733726   2.459019   1.408847   0.000000
     6  C    5.129154   4.928210   3.777042   2.491407   1.422018
     7  C    4.885993   5.077321   4.221877   2.815981   2.403494
     8  C    6.115824   6.428176   5.612255   4.206477   3.687964
     9  C    7.307356   7.450257   6.464788   5.085144   4.223551
    10  C    7.544971   7.424714   6.258915   4.988084   3.827782
    11  C    8.937423   8.730082   7.498282   6.300964   5.039392
    12  C   10.058192   9.967100   8.787821   7.530376   6.340334
    13  C   11.382503  11.217722   9.989372   8.785385   7.530376
    14  C   12.498873  12.426113  11.240342   9.989372   8.787821
    15  C   13.788287  13.651650  12.426102  11.217715   9.967089
    16  C   14.061859  13.788287  12.498871  11.382506  10.058192
    17  C   13.093934  12.723977  11.400286  10.355162   8.992704
    18  C   11.717523  11.387204  10.082587   8.998764   7.653564
    19  C   10.790591  10.340410   8.996741   8.012371   6.625429
    20  C    9.396105   8.983127   7.657695   6.629753   5.255000
    21  C    8.624431   8.048522   6.677689   5.814923   4.406259
    22  C    7.230665   6.670072   5.309571   4.420979   3.012280
    23  C    6.554200   6.250901   5.001488   3.837546   2.542484
    24  C    3.723654   4.206475   3.696746   2.414133   2.763737
    25  C    2.434515   2.806178   2.423467   1.404624   2.425289
    26  C    1.395301   2.411322   2.781473   2.427507   3.709736
    27  H    1.086698   2.152400   3.398560   3.897021   5.305726
    28  H    2.152299   1.086838   2.155596   3.419370   4.611678
    29  H    3.389777   2.143495   1.087775   2.169011   2.709334
    30  H    4.817344   4.040655   2.649543   2.132673   1.086347
    31  H    6.323839   6.851025   6.217422   4.836181   4.561995
    32  H    8.215664   8.448754   7.512008   6.120715   5.305577
    33  H   10.010921  10.070476   8.983879   7.655111   6.593731
    34  H   12.449514  12.498090  11.384299  10.074715   8.965063
    35  H   14.653127  14.576726  13.379246  12.139927  10.922941
    36  H   15.109507  14.804092  13.499350  12.410272  11.070648
    37  H   13.493292  13.018899  11.661951  10.710416   9.317824
    38  H   11.250512  10.678558   9.302413   8.443269   7.035689
    39  H    9.207359   8.493885   7.100360   6.411047   5.018649
    40  H    6.841311   6.102069   4.709052   4.069537   2.717266
    41  H    4.066718   4.836989   4.569669   3.398079   3.852683
    42  H    2.143996   3.389627   3.868960   3.417021   4.590808
                    6          7          8          9         10
     6  C    0.000000
     7  C    1.412292   0.000000
     8  C    2.423001   1.390933   0.000000
     9  C    2.804148   2.422202   1.393968   0.000000
    10  C    2.497704   2.866952   2.459414   1.410044   0.000000
    11  C    3.825653   4.314550   3.789921   2.503444   1.447600
    12  C    5.039404   5.255000   4.406259   3.012296   2.542479
    13  C    6.300968   6.629753   5.814923   4.420996   3.837539
    14  C    7.498294   7.657695   6.677689   5.309572   5.001482
    15  C    8.730082   8.983133   8.048537   6.670091   6.250892
    16  C    8.937423   9.396122   8.624457   7.230709   6.554206
    17  C    7.971486   8.591474   7.986734   6.615916   5.725116
    18  C    6.589681   7.186198   6.597532   5.237039   4.319716
    19  C    5.720582   6.538202   6.206944   4.956817   3.767164
    20  C    4.314525   5.155945   4.926812   3.773224   2.467521
    21  C    3.789876   4.926812   5.082575   4.217290   2.807803
    22  C    2.503344   3.773170   4.217226   3.691111   2.416619
    23  C    1.447584   2.467531   2.807811   2.416689   1.425616
    24  C    2.455073   1.406571   2.413455   3.698243   4.273090
    25  C    2.872837   2.451516   3.707893   4.872922   5.168713
    26  C    4.278362   3.742937   4.864122   6.129733   6.539946
    27  H    6.189063   5.852384   7.016103   8.261177   8.574934
    28  H    5.890875   6.136282   7.497931   8.486081   8.385868
    29  H    4.129143   4.865887   6.242789   6.921352   6.498778
    30  H    2.176942   3.399311   4.587563   4.895974   4.212213
    31  H    3.416695   2.159647   1.088308   2.138496   3.426349
    32  H    3.888165   3.375478   2.111629   1.085951   2.180503
    33  H    5.209246   5.127776   4.053155   2.720175   2.798387
    34  H    7.607959   7.564939   6.446492   5.149817   5.137625
    35  H    9.648520   9.803921   8.785017   7.434912   7.153469
    36  H    9.981157  10.471479   9.710876   8.317200   7.622136
    37  H    8.419592   9.177720   8.702571   7.365971   6.340613
    38  H    6.306406   7.271066   7.086815   5.903534   4.627405
    39  H    4.641401   5.875902   6.134342   5.304485   3.895488
    40  H    2.762742   4.163029   4.887749   4.589757   3.419698
    41  H    3.433853   2.160553   2.634002   4.025573   4.883408
    42  H    4.921988   4.106022   4.997987   6.352409   6.972134
                   11         12         13         14         15
    11  C    0.000000
    12  C    1.422061   0.000000
    13  C    2.491417   1.408847   0.000000
    14  C    3.777066   2.459019   1.405911   0.000000
    15  C    4.928210   3.733729   2.436809   1.395823   0.000000
    16  C    5.129154   4.219093   2.810357   2.412245   1.390990
    17  C    4.278241   3.709657   2.427441   2.781454   2.411286
    18  C    2.872837   2.425347   1.404698   2.423536   2.806178
    19  C    2.455015   2.763737   2.414133   3.696746   4.206429
    20  C    1.412219   2.403494   2.815981   4.221877   5.077290
    21  C    2.422931   3.687964   4.206477   5.612255   6.428142
    22  C    2.804052   4.223504   5.085110   6.464751   7.450204
    23  C    2.497686   3.827778   4.988079   6.258910   7.424697
    24  C    5.720607   6.625429   8.012371   8.996741  10.340419
    25  C    6.589681   7.653562   8.998758  10.082588  11.387204
    26  C    7.971600   8.992804  10.355262  11.400386  12.724083
    27  H    9.981157  11.070646  12.410268  13.499350  14.804092
    28  H    9.648536  10.922975  12.139952  13.379279  14.576742
    29  H    7.607959   8.965089  10.074734  11.384322  12.498090
    30  H    5.209220   6.593731   7.655111   8.983879  10.070458
    31  H    4.641500   5.018678   6.411073   7.100375   8.493924
    32  H    2.762803   2.717256   4.069528   4.709044   6.102084
    33  H    2.177008   1.086347   2.132673   2.649543   4.040678
    34  H    4.129143   2.709295   2.168945   1.087702   2.143495
    35  H    5.890854   4.611656   3.419322   2.155579   1.086792
    36  H    6.189063   5.305753   3.897048   3.398610   2.152400
    37  H    4.922019   4.590910   3.417141   3.869098   3.389694
    38  H    3.433853   3.852756   3.398151   4.569737   4.836989
    39  H    3.416555   4.561931   4.836126   6.217369   6.850937
    40  H    3.888116   5.305576   6.120712   7.512006   8.448722
    41  H    6.306406   7.035666   8.443246   9.302398  10.678558
    42  H    8.419577   9.317802  10.710392  11.661939  13.018895
                   16         17         18         19         20
    16  C    0.000000
    17  C    1.395332   0.000000
    18  C    2.434515   1.405423   0.000000
    19  C    3.723630   2.450788   1.400382   0.000000
    20  C    4.885982   3.742837   2.451506   1.406571   0.000000
    21  C    6.115804   4.864024   3.707869   2.413455   1.390933
    22  C    7.307329   6.129624   4.872894   3.698238   2.422184
    23  C    7.544967   6.539839   5.168714   4.273082   2.866944
    24  C   10.790610   9.997931   8.592613   7.929014   6.538202
    25  C   11.717523  10.812686   9.419052   8.592587   7.186172
    26  C   13.094046  12.209140  10.812802   9.998026   8.591569
    27  H   15.109507  14.159628  12.778498  11.868378  10.471461
    28  H   14.653136  13.544894  12.234485  11.130813   9.803926
    29  H   12.449514  11.277141  10.015785   8.836130   7.564947
    30  H   10.010913   8.849516   7.577699   6.416684   5.127776
    31  H    9.207416   8.698591   7.339843   7.093204   5.875953
    32  H    6.841338   6.426840   5.121655   5.137394   4.163021
    33  H    4.817384   4.557844   3.390491   3.849456   3.399311
    34  H    3.389777   3.869014   3.414146   4.579325   4.865831
    35  H    2.152233   3.397704   3.892960   5.293175   6.136213
    36  H    1.086698   2.155280   3.417521   4.602841   5.852380
    37  H    2.144059   1.087755   2.168874   2.703572   4.106059
    38  H    4.066718   2.676713   2.149645   1.089023   2.160608
    39  H    6.323774   4.976302   4.047814   2.649504   2.159584
    40  H    8.215642   6.975581   5.793163   4.524874   3.375475
    41  H   11.250512  10.564546   9.164201   8.630914   7.271021
    42  H   13.493281  12.694270  11.289503  10.579345   9.177663
                   21         22         23         24         25
    21  C    0.000000
    22  C    1.393984   0.000000
    23  C    2.459404   1.409972   0.000000
    24  C    6.206944   4.956770   3.767174   0.000000
    25  C    6.597494   5.236966   4.319698   1.400427   0.000000
    26  C    7.986823   6.615975   5.725220   2.450886   1.405545
    27  H    9.710850   8.317156   7.622128   4.602854   3.417521
    28  H    8.785008   7.434911   7.153498   5.293267   3.893007
    29  H    6.446491   5.149835   5.137655   4.579392   3.414146
    30  H    4.053155   2.720183   2.798389   3.849456   3.390426
    31  H    6.134401   5.304485   3.895561   2.649546   4.047899
    32  H    4.887742   4.589685   3.419698   4.524879   5.793187
    33  H    4.587563   4.895919   4.212212   6.416684   7.577707
    34  H    6.242735   6.921263   6.498745   8.836127  10.015785
    35  H    7.497857   8.485991   8.385826  11.130814  12.234477
    36  H    7.016090   8.261158   8.574933  11.868397  12.778498
    37  H    4.997990   6.352422   6.972164  10.579400  11.289519
    38  H    2.634022   4.025608   4.883437   8.630956   9.164201
    39  H    1.088243   2.138496   3.426286   7.093159   7.339763
    40  H    2.111624   1.086003   2.180503   5.137403   5.121612
    41  H    7.086759   5.903423   4.627360   1.088950   2.149645
    42  H    8.702496   7.365854   6.340559   2.703540   2.168829
                   26         27         28         29         30
    26  C    0.000000
    27  H    2.155199   0.000000
    28  H    3.397781   2.481355   0.000000
    29  H    3.869106   4.285935   2.463389   0.000000
    30  H    4.557912   5.887707   4.732274   2.439422   0.000000
    31  H    4.976424   7.113614   7.937089   6.964046   5.533376
    32  H    6.975684   9.127018   9.499300   7.997910   5.978120
    33  H    8.849616  10.977360  11.074391   9.285479   7.008212
    34  H   11.277236  13.410966  13.491613  11.628676   9.285446
    35  H   13.544990  15.650293  15.522794  13.491589  11.074344
    36  H   14.159741  16.162313  15.650300  13.410966  10.977355
    37  H   12.694406  14.571663  13.780603  11.438686   9.050256
    38  H   10.564669  12.336215  11.393609   9.016757   6.664378
    39  H    8.698643  10.291018   9.131293   6.709277   4.454003
    40  H    6.426928   7.920884   6.758339   4.368020   2.062123
    41  H    2.676756   4.761540   5.908368   5.527697   4.938380
    42  H    1.087596   2.464663   4.286170   4.956495   5.517927
                   31         32         33         34         35
    31  H    0.000000
    32  H    2.391956   0.000000
    33  H    4.454019   2.062115   0.000000
    34  H    6.709294   4.368018   2.439411   0.000000
    35  H    9.131327   6.758351   4.732284   2.463407   0.000000
    36  H   10.291073   7.920910   5.887745   4.285935   2.481290
    37  H    9.485774   7.290238   5.518039   4.956560   4.286170
    38  H    8.023750   6.169725   4.938453   5.527697   5.908315
    39  H    7.197024   5.967367   5.533310   6.963928   7.936955
    40  H    5.967441   5.555670   5.978120   7.997864   9.499233
    41  H    2.400675   4.648858   6.664365   9.016757  11.393612
    42  H    4.870087   7.076976   9.050251  11.438691  13.780603
                   36         37         38         39         40
    36  H    0.000000
    37  H    2.464709   0.000000
    38  H    4.761540   2.469596   0.000000
    39  H    7.113563   4.870043   2.400646   0.000000
    40  H    9.127001   7.076964   4.648857   2.391932   0.000000
    41  H   12.336215  11.222449   9.406837   8.023642   6.169667
    42  H   14.571652  13.251242  11.222421   9.485652   7.290151
                   41         42
    41  H    0.000000
    42  H    2.469612   0.000000
 Stoichiometry    C26H16
 Framework group  C2H[SGH(C26H16)]
 Deg. of freedom    41
 Full point group                 C2H     NOp   4
 Largest Abelian subgroup         C2H     NOp   4
 Largest concise Abelian subgroup C2      NOp   2
                         Standard orientation:                         
 ---------------------------------------------------------------------
 Center     Atomic      Atomic             Coordinates (Angstroms)
 Number     Number       Type             X           Y           Z
 ---------------------------------------------------------------------
      1          6           0       -0.402096   -7.019416   -0.000000
      2          6           0        0.963996   -6.757410   -0.000000
      3          6           0        1.419364   -5.437984   -0.000000
      4          6           0        0.513830   -4.362533   -0.000000
      5          6           0        0.952444   -3.023702   -0.000000
      6          6           0        0.066137   -1.911680   -0.000000
      7          6           0       -1.312323   -2.218957    0.000000
      8          6           0       -2.246362   -1.188295    0.000000
      9          6           0       -1.839888    0.145094    0.000000
     10          6           0       -0.482023    0.525131    0.000000
     11          6           0       -0.066137    1.911680   -0.000000
     12          6           0       -0.952444    3.023702   -0.000000
     13          6           0       -0.513830    4.362533   -0.000000
     14          6           0       -1.419364    5.437984   -0.000000
     15          6           0       -0.963996    6.757410   -0.000000
     16          6           0        0.402096    7.019416   -0.000000
     17          6           0        1.312301    5.961799   -0.000000
     18          6           0        0.865270    4.629366    0.000000
     19          6           0        1.760252    3.552297   -0.000000
     20          6           0        1.312323    2.218957    0.000000
     21          6           0        2.246362    1.188295    0.000000
     22          6           0        1.839888   -0.145094    0.000000
     23          6           0        0.482023   -0.525131    0.000000
     24          6           0       -1.760252   -3.552297    0.000000
     25          6           0       -0.865270   -4.629366    0.000000
     26          6           0       -1.312301   -5.961799    0.000000
     27          1           0       -0.760598   -8.045276   -0.000000
     28          1           0        1.676401   -7.578201   -0.000000
     29          1           0        2.491387   -5.253533   -0.000000
     30          1           0        2.026214   -2.858874   -0.000000
     31          1           0       -3.312821   -1.405272    0.000000
     32          1           0       -2.632155    0.887793    0.000000
     33          1           0       -2.026214    2.858874   -0.000000
     34          1           0       -2.491387    5.253533   -0.000000
     35          1           0       -1.676401    7.578201   -0.000000
     36          1           0        0.760598    8.045276   -0.000000
     37          1           0        2.376997    6.184582   -0.000000
     38          1           0        2.829888    3.756868   -0.000000
     39          1           0        3.312821    1.405272    0.000000
     40          1           0        2.632155   -0.887793    0.000000
     41          1           0       -2.829888   -3.756868   -0.000000
     42          1           0       -2.376997   -6.184582    0.000000
 ---------------------------------------------------------------------
 Rotational constants (GHZ):           0.8832293           0.0840112           0.0767143
 Standard basis: def2SVPP (5D, 7F)
 There are   159 symmetry adapted cartesian basis functions of AG  symmetry.
 There are    52 symmetry adapted cartesian basis functions of BG  symmetry.
 There are    52 symmetry adapted cartesian basis functions of AU  symmetry.
 There are   159 symmetry adapted cartesian basis functions of BU  symmetry.
 There are   146 symmetry adapted basis functions of AG  symmetry.
 There are    52 symmetry adapted basis functions of BG  symmetry.
 There are    52 symmetry adapted basis functions of AU  symmetry.
 There are   146 symmetry adapted basis functions of BU  symmetry.
   396 basis functions,   714 primitive gaussians,   422 cartesian basis functions
    86 alpha electrons       86 beta electrons
       nuclear repulsion energy      1942.9055439754 Hartrees.
 NAtoms=   42 NActive=   42 NUniq=   21 SFac= 4.00D+00 NAtFMM=   60 NAOKFM=F Big=F
 Integral buffers will be    131072 words long.
 Raffenetti 2 integral format.
 Two-electron integral symmetry is turned on.
 Nuclear repulsion after empirical dispersion term =     1942.7960589704 Hartrees.
 One-electron integrals computed using PRISM.
   4 Symmetry operations used in ECPInt.
 ECPInt:  NShTT=   17766 NPrTT=   71262 LenC2=   14865 LenP2D=   39447.
 LDataN:  DoStor=T MaxTD1= 4 Len=   56
 NBasis=   396 RedAO= T EigKep=  1.95D-04  NBF=   146    52    52   146
 NBsUse=   396 1.00D-06 EigRej= -1.00D+00 NBFU=   146    52    52   146
 ExpMin= 1.22D-01 ExpMax= 1.24D+03 ExpMxC= 1.86D+02 IAcc=3 IRadAn=         5 AccDes= 0.00D+00
 Harris functional with IExCor=  402 and IRadAn=       5 diagonalized for initial guess.
 HarFok:  IExCor=  402 AccDes= 0.00D+00 IRadAn=         5 IDoV= 1 UseB2=F ITyADJ=14
 ICtDFT=  3500011 ScaDFX=  1.000000  1.000000  1.000000  1.000000
 FoFCou: FMM=F IPFlag=           0 FMFlag=      100000 FMFlg1=           0
         NFxFlg=           0 DoJE=T BraDBF=F KetDBF=T FulRan=T
         wScrn=  0.000000 ICntrl=       500 IOpCl=  0 I1Cent=   200000004 NGrid=           0
         NMat0=    1 NMatS0=      1 NMatT0=    0 NMatD0=    1 NMtDS0=    0 NMtDT0=    0
 Petite list used in FoFCou.
 Initial guess orbital symmetries:
       Occupied  (BU) (AG) (BU) (AG) (AG) (BU) (BU) (AG) (BU) (AG)
                 (AG) (BU) (AG) (BU) (BU) (AG) (BU) (AG) (BU) (AG)
                 (AG) (BU) (AG) (BU) (AG) (BU) (AG) (BU) (AG) (BU)
                 (AG) (BU) (AG) (BU) (BU) (AG) (AG) (BU) (AG) (BU)
                 (AG) (BU) (AG) (BU) (AG) (BU) (AG) (BU) (AG) (BU)
                 (BU) (AG) (AG) (AG) (BU) (BU) (AG) (BU) (AG) (BU)
                 (AG) (BU) (AG) (AG) (BU) (BU) (AU) (BG) (AG) (BU)
                 (BU) (AU) (AG) (AG) (BU) (BG) (AG) (BG) (AU) (AU)
                 (BG) (BG) (AU) (AU) (BG) (AU)
       Virtual   (BG) (AU) (BG) (BG) (AU) (AU) (BG) (BG) (AU) (AU)
                 (BU) (AG) (BU) (AG) (AG) (BG) (BU) (BU) (AG) (AU)
                 (AG) (BU) (BU) (AG) (BU) (BG) (AG) (BU) (BU) (AG)
                 (AG) (BU) (BU) (AG) (AG) (BU) (AG) (BU) (BU) (AG)
                 (BU) (AG) (AG) (BU) (BU) (AG) (AG) (AG) (BU) (AG)
                 (BU) (BU) (BU) (AG) (AG) (BU) (AG) (AG) (BU) (BU)
                 (AG) (BU) (AG) (BU) (BU) (AG) (AU) (AG) (BG) (BU)
                 (AG) (AG) (BU) (AU) (BU) (BG) (AG) (BU) (BG) (AU)
                 (BU) (AG) (AG) (BU) (AU) (BG) (AG) (BU) (AG) (AU)
                 (BG) (BG) (AU) (BU) (BG) (AU) (AU) (BU) (AG) (BG)
                 (AU) (AG) (AG) (BU) (BU) (BU) (BU) (AG) (BG) (AG)
                 (BU) (AG) (BG) (BU) (AG) (AU) (AG) (BU) (AG) (BU)
                 (AU) (AG) (BU) (BG) (AG) (BU) (BU) (AG) (AG) (BU)
                 (AG) (AU) (BG) (BU) (BU) (AU) (BU) (AG) (AG) (BU)
                 (AG) (BG) (AG) (BU) (AG) (BU) (AG) (BU) (BU) (AG)
                 (BU) (AG) (AG) (BU) (BU) (AG) (AG) (BU) (BU) (AU)
                 (BG) (AG) (AU) (BG) (AG) (BG) (BU) (AU) (BU) (AG)
                 (AG) (BU) (AU) (BU) (BU) (AG) (BG) (AU) (AU) (BG)
                 (AG) (BU) (BG) (AG) (AU) (BU) (BG) (AU) (BG) (AG)
                 (AU) (BG) (AU) (BG) (AU) (AG) (BU) (AG) (AG) (BU)
                 (BU) (AG) (AG) (BU) (BU) (AG) (AG) (BU) (BU) (BG)
                 (AU) (AG) (AG) (BU) (AG) (BU) (BG) (AG) (BU) (AU)
                 (AG) (BU) (BU) (BG) (AG) (AU) (BU) (BU) (AG) (BG)
                 (BU) (AG) (AG) (AU) (BU) (BU) (AG) (AG) (AG) (BG)
                 (BU) (BU) (AU) (AG) (BU) (BG) (AG) (BG) (AU) (BU)
                 (AG) (BU) (BG) (AU) (BU) (AG) (BG) (AU) (BG) (AU)
                 (AG) (AU) (BG) (BU) (AU) (BG) (AU) (AG) (BG) (BU)
                 (BU) (AG) (AG) (BU) (BU) (BG) (AG) (AU) (BU) (AG)
                 (BU) (AU) (AG) (AG) (BG) (BU) (AG) (AG) (AU) (BU)
                 (BG) (BU) (AG) (BU) (AG) (BU) (BU) (AG) (BU) (AG)
                 (BU) (AG) (BU) (AG) (AG) (BU) (BU) (AG) (BU) (AG)
 The electronic state of the initial guess is 1-AG.
 Requested convergence on RMS density matrix=1.00D-08 within 128 cycles.
 Requested convergence on MAX density matrix=1.00D-06.
 Requested convergence on             energy=1.00D-06.
 No special actions if energy rises.
 Integral accuracy reduced to 1.0D-05 until final iterations.
 Initial convergence to 1.0D-05 achieved.  Increase integral accuracy.
 SCF Done:  E(RB3LYP) =  -999.805426149     A.U. after   16 cycles
            NFock= 16  Conv=0.42D-08     -V/T= 2.0104

 **********************************************************************

            Population analysis using the SCF Density.

 **********************************************************************

 Orbital symmetries:
       Occupied  (AG) (BU) (AG) (BU) (BU) (AG) (BU) (AG) (BU) (AG)
                 (AG) (BU) (BU) (AG) (BU) (AG) (AG) (BU) (AG) (BU)
                 (AG) (BU) (BU) (AG) (BU) (AG) (AG) (BU) (AG) (BU)
                 (AG) (BU) (AG) (BU) (BU) (AG) (AG) (BU) (AG) (BU)
                 (AG) (BU) (AG) (BU) (AG) (BU) (AG) (BU) (AG) (BU)
                 (BU) (AG) (AG) (AG) (BU) (BU) (AG) (BU) (AG) (BU)
                 (BU) (AG) (AU) (AG) (AG) (BG) (BU) (BU) (AU) (BU)
                 (AG) (AG) (BG) (BU) (BU) (AG) (AG) (BG) (AU) (AU)
                 (BG) (BG) (AU) (AU) (BG) (AU)
       Virtual   (BG) (AU) (BG) (BG) (AU) (AU) (BG) (BG) (BU) (AU)
                 (AG) (BU) (AG) (AG) (BU) (BU) (AG) (AU) (AG) (BU)
                 (BU) (AG) (AG) (BG) (BU) (BU) (AU) (AG) (BU) (BG)
                 (BU) (AG) (AG) (BU) (BU) (AG) (AG) (BU) (AG) (BU)
                 (AG) (BU) (AG) (AG) (BU) (AG) (BU) (BU) (AG) (BU)
                 (AG) (BU) (AG) (BU) (BU) (AG) (AG) (BU) (BU) (AG)
                 (BU) (AG) (AG) (AU) (BU) (BG) (BU) (AG) (AG) (AG)
                 (BU) (AU) (AG) (BU) (BG) (BU) (BG) (AU) (AG) (BU)
                 (AG) (BU) (AU) (BG) (AG) (AG) (BU) (AU) (BU) (BG)
                 (BG) (AU) (BG) (AG) (AU) (BU) (AU) (BG) (AU) (AG)
                 (BU) (BG) (BU) (AG) (AG) (BU) (BU) (BG) (AG) (AU)
                 (BU) (AG) (BU) (AG) (AG) (AU) (BU) (BG) (BU) (AG)
                 (AG) (BU) (BU) (AG) (AU) (BU) (AG) (BU) (BG) (AG)
                 (AG) (AU) (BU) (BU) (AG) (BU) (AG) (BU) (AG) (BG)
                 (AG) (BU) (AG) (BU) (BU) (AG) (AG) (BU) (BU) (AG)
                 (BU) (AG) (AG) (BU) (BU) (AG) (AG) (BU) (BU) (AG)
                 (AU) (AG) (BG) (BU) (AU) (BG) (BG) (AU) (AG) (BU)
                 (AG) (BU) (BU) (BU) (AG) (AU) (AG) (BG) (BU) (AU)
                 (AG) (AU) (BG) (BU) (BG) (AG) (AU) (BG) (AG) (AU)
                 (BG) (AU) (BG) (AU) (BG) (BU) (AU) (AG) (BU) (AG)
                 (BU) (AG) (AG) (BU) (BU) (AG) (BG) (BU) (AG) (BU)
                 (AU) (AG) (AG) (BU) (AG) (BG) (BU) (AU) (AG) (BU)
                 (BU) (AG) (BG) (BU) (AG) (AU) (BU) (BU) (AG) (BG)
                 (AG) (BU) (AG) (AU) (BU) (BU) (AG) (AG) (AG) (BG)
                 (BU) (AU) (BU) (AG) (BU) (BG) (AG) (BG) (AU) (BU)
                 (AG) (BU) (BG) (AU) (AG) (BU) (BG) (AU) (BG) (AU)
                 (AU) (AG) (BG) (BU) (AU) (BG) (AU) (BG) (AG) (BU)
                 (BU) (AG) (AG) (BU) (BG) (BU) (AG) (AU) (AG) (BU)
                 (AU) (BU) (AG) (BG) (AG) (BU) (AG) (AU) (BG) (AG)
                 (BU) (BU) (AG) (BU) (AG) (BU) (BU) (AG) (BU) (AG)
                 (BU) (AG) (BU) (AG) (AG) (BU) (BU) (AG) (BU) (AG)
 The electronic state is 1-AG.
 Alpha  occ. eigenvalues --  -10.20364 -10.20344 -10.20337 -10.20324 -10.19644
 Alpha  occ. eigenvalues --  -10.19644 -10.19485 -10.19484 -10.19451 -10.19451
 Alpha  occ. eigenvalues --  -10.19370 -10.19369 -10.19138 -10.19138 -10.19077
 Alpha  occ. eigenvalues --  -10.19077 -10.19063 -10.19061 -10.19046 -10.19046
 Alpha  occ. eigenvalues --  -10.19020 -10.19020 -10.18992 -10.18992 -10.18915
 Alpha  occ. eigenvalues --  -10.18914  -0.89130  -0.88020  -0.86172  -0.83822
 Alpha  occ. eigenvalues --   -0.80246  -0.79792  -0.77800  -0.76989  -0.75538
 Alpha  occ. eigenvalues --   -0.74732  -0.72537  -0.70883  -0.68868  -0.65739
 Alpha  occ. eigenvalues --   -0.64055  -0.63275  -0.60701  -0.60538  -0.59933
 Alpha  occ. eigenvalues --   -0.59870  -0.55056  -0.54221  -0.53286  -0.52506
 Alpha  occ. eigenvalues --   -0.51248  -0.49497  -0.48606  -0.47357  -0.46640
 Alpha  occ. eigenvalues --   -0.45518  -0.45409  -0.44157  -0.43871  -0.43589
 Alpha  occ. eigenvalues --   -0.42300  -0.42148  -0.41992  -0.41474  -0.40695
 Alpha  occ. eigenvalues --   -0.40544  -0.40526  -0.39648  -0.38283  -0.38055
 Alpha  occ. eigenvalues --   -0.37764  -0.35647  -0.35437  -0.35106  -0.34385
 Alpha  occ. eigenvalues --   -0.33645  -0.32805  -0.31798  -0.31418  -0.29875
 Alpha  occ. eigenvalues --   -0.28532  -0.26887  -0.25918  -0.23287  -0.21230
 Alpha  occ. eigenvalues --   -0.18716
 Alpha virt. eigenvalues --   -0.08546  -0.06042  -0.04128  -0.00850  -0.00246
 Alpha virt. eigenvalues --    0.01661   0.02381   0.05727   0.06170   0.06242
 Alpha virt. eigenvalues --    0.06449   0.06581   0.07704   0.07953   0.09386
 Alpha virt. eigenvalues --    0.09869   0.11229   0.11856   0.11922   0.13025
 Alpha virt. eigenvalues --    0.13507   0.14513   0.15268   0.16443   0.17224
 Alpha virt. eigenvalues --    0.18877   0.19669   0.21093   0.22236   0.23070
 Alpha virt. eigenvalues --    0.23569   0.24119   0.25242   0.26372   0.26940
 Alpha virt. eigenvalues --    0.27168   0.28077   0.28083   0.28441   0.28808
 Alpha virt. eigenvalues --    0.29475   0.30322   0.31120   0.31358   0.31657
 Alpha virt. eigenvalues --    0.32108   0.32300   0.34242   0.34274   0.35208
 Alpha virt. eigenvalues --    0.35402   0.36134   0.36156   0.37361   0.37791
 Alpha virt. eigenvalues --    0.38043   0.39012   0.39208   0.41226   0.41250
 Alpha virt. eigenvalues --    0.42634   0.42991   0.43562   0.44357   0.44532
 Alpha virt. eigenvalues --    0.45343   0.45529   0.45668   0.45824   0.46695
 Alpha virt. eigenvalues --    0.46838   0.46842   0.47642   0.47678   0.47902
 Alpha virt. eigenvalues --    0.48134   0.48992   0.49256   0.49380   0.50982
 Alpha virt. eigenvalues --    0.51284   0.51368   0.51661   0.51766   0.52417
 Alpha virt. eigenvalues --    0.52824   0.53078   0.54580   0.55295   0.55433
 Alpha virt. eigenvalues --    0.56706   0.56835   0.58034   0.58521   0.59697
 Alpha virt. eigenvalues --    0.59767   0.60769   0.62729   0.63174   0.64805
 Alpha virt. eigenvalues --    0.65080   0.66131   0.66819   0.67008   0.67207
 Alpha virt. eigenvalues --    0.67609   0.67748   0.67990   0.68142   0.68638
 Alpha virt. eigenvalues --    0.69133   0.69225   0.70038   0.70495   0.71413
 Alpha virt. eigenvalues --    0.71554   0.72238   0.72324   0.73670   0.73780
 Alpha virt. eigenvalues --    0.74139   0.74219   0.75314   0.75733   0.76978
 Alpha virt. eigenvalues --    0.77141   0.77376   0.77676   0.77966   0.78047
 Alpha virt. eigenvalues --    0.79085   0.79336   0.79827   0.80290   0.80378
 Alpha virt. eigenvalues --    0.81901   0.83469   0.83915   0.84214   0.85081
 Alpha virt. eigenvalues --    0.85236   0.85622   0.89231   0.90236   0.91036
 Alpha virt. eigenvalues --    0.91341   0.91876   0.96214   0.98819   0.99029
 Alpha virt. eigenvalues --    1.04674   1.08208   1.11347   1.12075   1.13285
 Alpha virt. eigenvalues --    1.13435   1.14059   1.15200   1.17584   1.19569
 Alpha virt. eigenvalues --    1.20885   1.21453   1.21631   1.22260   1.23275
 Alpha virt. eigenvalues --    1.23676   1.24966   1.25945   1.26097   1.26661
 Alpha virt. eigenvalues --    1.27176   1.28582   1.29925   1.31432   1.31752
 Alpha virt. eigenvalues --    1.33326   1.35989   1.36859   1.37043   1.38283
 Alpha virt. eigenvalues --    1.38741   1.39781   1.39833   1.40473   1.40648
 Alpha virt. eigenvalues --    1.43186   1.43252   1.44843   1.45456   1.46718
 Alpha virt. eigenvalues --    1.46915   1.48297   1.48998   1.49251   1.49253
 Alpha virt. eigenvalues --    1.49324   1.49851   1.51494   1.53252   1.53582
 Alpha virt. eigenvalues --    1.55506   1.68091   1.69657   1.71096   1.71964
 Alpha virt. eigenvalues --    1.72809   1.73515   1.73943   1.74221   1.74739
 Alpha virt. eigenvalues --    1.76948   1.79822   1.81017   1.82508   1.83351
 Alpha virt. eigenvalues --    1.83679   1.83708   1.85324   1.85423   1.85771
 Alpha virt. eigenvalues --    1.87112   1.87944   1.88027   1.88357   1.89254
 Alpha virt. eigenvalues --    1.91431   1.92779   1.94692   1.94864   1.95558
 Alpha virt. eigenvalues --    2.00294   2.00396   2.02869   2.03198   2.05048
 Alpha virt. eigenvalues --    2.05764   2.07004   2.08416   2.09679   2.09804
 Alpha virt. eigenvalues --    2.11426   2.12414   2.13071   2.16239   2.16913
 Alpha virt. eigenvalues --    2.17002   2.18210   2.18576   2.19528   2.20259
 Alpha virt. eigenvalues --    2.22058   2.23187   2.24372   2.25021   2.26622
 Alpha virt. eigenvalues --    2.27063   2.27869   2.27949   2.28320   2.29220
 Alpha virt. eigenvalues --    2.32320   2.32476   2.33172   2.34449   2.35013
 Alpha virt. eigenvalues --    2.36115   2.37765   2.40749   2.41144   2.46907
 Alpha virt. eigenvalues --    2.47904   2.48016   2.52494   2.54266   2.56450
 Alpha virt. eigenvalues --    2.57566   2.59836   2.61031   2.61790   2.62598
 Alpha virt. eigenvalues --    2.62871   2.63845   2.65456   2.66095   2.66623
 Alpha virt. eigenvalues --    2.67164   2.67651   2.68433   2.70026   2.70393
 Alpha virt. eigenvalues --    2.71363   2.72663   2.75550   2.78419   2.81745
 Alpha virt. eigenvalues --    2.83176   2.86117   2.90031   2.90208   2.90323
 Alpha virt. eigenvalues --    2.97855   2.98593   3.05003   3.07903   3.25026
 Alpha virt. eigenvalues --    3.32350   3.39493   3.43937   3.49166   3.54649
          Condensed to atoms (all electrons):
               1          2          3          4          5          6
     1  C    5.240487   0.141039   0.147613  -0.158492  -0.002414   0.000259
     2  C    0.141039   5.238820   0.226518   0.143590   0.019815  -0.001105
     3  C    0.147613   0.226518   5.456921   0.207937  -0.154937   0.017710
     4  C   -0.158492   0.143590   0.207937   5.410672   0.253222   0.120010
     5  C   -0.002414   0.019815  -0.154937   0.253222   5.703638   0.280237
     6  C    0.000259  -0.001105   0.017710   0.120010   0.280237   5.532026
     7  C   -0.001312   0.000327  -0.001936  -0.150597   0.015202   0.022264
     8  C    0.000019  -0.000005   0.000091  -0.001609   0.027293   0.031280
     9  C   -0.000000   0.000000  -0.000005   0.000021  -0.003491  -0.137594
    10  C    0.000000  -0.000000   0.000011   0.000701   0.019800   0.004781
    11  C    0.000000  -0.000000   0.000000   0.000002   0.000036   0.025506
    12  C    0.000000  -0.000000   0.000000  -0.000000   0.000008   0.000036
    13  C   -0.000000   0.000000  -0.000000  -0.000000  -0.000000   0.000002
    14  C    0.000000  -0.000000   0.000000  -0.000000   0.000000   0.000000
    15  C   -0.000000   0.000000  -0.000000   0.000000  -0.000000  -0.000000
    16  C    0.000000  -0.000000   0.000000  -0.000000   0.000000   0.000000
    17  C   -0.000000   0.000000  -0.000000  -0.000000  -0.000000  -0.000000
    18  C    0.000000   0.000000  -0.000000   0.000000   0.000000  -0.000003
    19  C   -0.000000  -0.000000   0.000000  -0.000000  -0.000002   0.000082
    20  C   -0.000000  -0.000000   0.000000   0.000008  -0.000101  -0.003809
    21  C   -0.000000   0.000000  -0.000001  -0.000118   0.001040   0.022131
    22  C   -0.000000   0.000001  -0.000062   0.000190  -0.029321  -0.148010
    23  C   -0.000004   0.000004  -0.000478   0.023272  -0.151787   0.230783
    24  C    0.020253  -0.002306   0.026656   0.030345  -0.146293   0.034171
    25  C    0.146435  -0.160827   0.045103  -0.040372   0.021756  -0.133864
    26  C    0.221715   0.147975  -0.177089   0.046437   0.026401  -0.001321
    27  H    0.436359  -0.084803   0.015125  -0.001401   0.000048  -0.000001
    28  H   -0.084872   0.436433  -0.076637   0.015744  -0.000512   0.000006
    29  H    0.015412  -0.081247   0.434153  -0.076091  -0.023462   0.000513
    30  H   -0.000010   0.000492  -0.018552  -0.083018   0.414311  -0.051403
    31  H    0.000000  -0.000000   0.000001  -0.000023  -0.000406   0.016312
    32  H   -0.000000   0.000000   0.000000  -0.000002   0.000050  -0.001657
    33  H    0.000000  -0.000000   0.000000   0.000000   0.000000   0.000033
    34  H   -0.000000   0.000000   0.000000  -0.000000   0.000000   0.000000
    35  H    0.000000   0.000000   0.000000  -0.000000   0.000000  -0.000000
    36  H    0.000000   0.000000  -0.000000  -0.000000   0.000000   0.000000
    37  H   -0.000000   0.000000  -0.000000   0.000000  -0.000000  -0.000000
    38  H   -0.000000   0.000000  -0.000000  -0.000000  -0.000000  -0.000001
    39  H    0.000000   0.000000  -0.000000  -0.000001   0.000003  -0.000374
    40  H   -0.000000   0.000000  -0.000046   0.001967   0.009873  -0.041363
    41  H    0.000539  -0.000021  -0.000355   0.019355  -0.002680   0.017331
    42  H   -0.081788   0.015566  -0.002108   0.018072  -0.000323  -0.000009
               7          8          9         10         11         12
     1  C   -0.001312   0.000019  -0.000000   0.000000   0.000000   0.000000
     2  C    0.000327  -0.000005   0.000000  -0.000000  -0.000000  -0.000000
     3  C   -0.001936   0.000091  -0.000005   0.000011   0.000000   0.000000
     4  C   -0.150597  -0.001609   0.000021   0.000701   0.000002  -0.000000
     5  C    0.015202   0.027293  -0.003491   0.019800   0.000036   0.000008
     6  C    0.022264   0.031280  -0.137594   0.004781   0.025506   0.000036
     7  C    5.504191   0.155643   0.154637  -0.174667  -0.003809  -0.000101
     8  C    0.155643   5.493615   0.226429   0.136503   0.022131   0.001040
     9  C    0.154637   0.226429   5.515828   0.179439  -0.148010  -0.029321
    10  C   -0.174667   0.136503   0.179439   5.612015   0.230783  -0.151787
    11  C   -0.003809   0.022131  -0.148010   0.230783   5.532026   0.280237
    12  C   -0.000101   0.001040  -0.029321  -0.151787   0.280237   5.703638
    13  C    0.000008  -0.000118   0.000190   0.023272   0.120010   0.253222
    14  C    0.000000  -0.000001  -0.000062  -0.000478   0.017710  -0.154937
    15  C   -0.000000   0.000000   0.000001   0.000004  -0.001105   0.019815
    16  C   -0.000000  -0.000000  -0.000000  -0.000004   0.000259  -0.002414
    17  C    0.000000  -0.000000   0.000001   0.000116  -0.001321   0.026401
    18  C   -0.000001   0.000005   0.000061  -0.003550  -0.133864   0.021756
    19  C    0.000002  -0.000001  -0.000485   0.024489   0.034171  -0.146293
    20  C   -0.000403   0.000293   0.025730   0.014738   0.022264   0.015202
    21  C    0.000293  -0.000104  -0.003561  -0.151744   0.031280   0.027293
    22  C    0.025730  -0.003561   0.028053   0.000483  -0.137594  -0.003491
    23  C    0.014738  -0.151744   0.000483   0.170345   0.004781   0.019800
    24  C    0.224544  -0.163686   0.020254  -0.000639   0.000082  -0.000002
    25  C    0.154966   0.022673  -0.001479  -0.000114  -0.000003   0.000000
    26  C    0.019034  -0.001095   0.000018  -0.000005  -0.000000  -0.000000
    27  H    0.000009  -0.000000   0.000000  -0.000000   0.000000   0.000000
    28  H   -0.000002   0.000000  -0.000000   0.000000  -0.000000   0.000000
    29  H   -0.000008   0.000001  -0.000000   0.000000   0.000000   0.000000
    30  H    0.019901  -0.000317  -0.000013  -0.001494   0.000033   0.000000
    31  H   -0.091127   0.444368  -0.076968   0.017031  -0.000374   0.000003
    32  H    0.017239  -0.078544   0.422575  -0.055350  -0.041363   0.009873
    33  H   -0.000070   0.001442   0.012491  -0.040306  -0.051403   0.414311
    34  H    0.000000  -0.000000   0.000003  -0.000038   0.000513  -0.023462
    35  H    0.000000  -0.000000  -0.000000   0.000000   0.000006  -0.000512
    36  H   -0.000000   0.000000   0.000000   0.000000  -0.000001   0.000048
    37  H   -0.000000   0.000000   0.000000   0.000000  -0.000009  -0.000323
    38  H    0.000000  -0.000000   0.000012  -0.000164   0.017331  -0.002680
    39  H    0.000010  -0.000001   0.000049  -0.001826   0.016312  -0.000406
    40  H   -0.001312  -0.000038  -0.000295   0.017924  -0.001657   0.000050
    41  H   -0.085050  -0.021016   0.001136  -0.000073  -0.000001  -0.000000
    42  H    0.000720  -0.000049   0.000001  -0.000000  -0.000000  -0.000000
              13         14         15         16         17         18
     1  C   -0.000000   0.000000  -0.000000   0.000000  -0.000000   0.000000
     2  C    0.000000  -0.000000   0.000000  -0.000000   0.000000   0.000000
     3  C   -0.000000   0.000000  -0.000000   0.000000  -0.000000  -0.000000
     4  C   -0.000000  -0.000000   0.000000  -0.000000  -0.000000   0.000000
     5  C   -0.000000   0.000000  -0.000000   0.000000  -0.000000   0.000000
     6  C    0.000002   0.000000  -0.000000   0.000000  -0.000000  -0.000003
     7  C    0.000008   0.000000  -0.000000  -0.000000   0.000000  -0.000001
     8  C   -0.000118  -0.000001   0.000000  -0.000000  -0.000000   0.000005
     9  C    0.000190  -0.000062   0.000001  -0.000000   0.000001   0.000061
    10  C    0.023272  -0.000478   0.000004  -0.000004   0.000116  -0.003550
    11  C    0.120010   0.017710  -0.001105   0.000259  -0.001321  -0.133864
    12  C    0.253222  -0.154937   0.019815  -0.002414   0.026401   0.021756
    13  C    5.410672   0.207937   0.143590  -0.158492   0.046437  -0.040372
    14  C    0.207937   5.456921   0.226518   0.147613  -0.177089   0.045103
    15  C    0.143590   0.226518   5.238820   0.141039   0.147975  -0.160827
    16  C   -0.158492   0.147613   0.141039   5.240487   0.221715   0.146435
    17  C    0.046437  -0.177089   0.147975   0.221715   5.470971   0.197662
    18  C   -0.040372   0.045103  -0.160827   0.146435   0.197662   5.462397
    19  C    0.030345   0.026656  -0.002306   0.020253  -0.163743   0.197755
    20  C   -0.150597  -0.001936   0.000327  -0.001312   0.019034   0.154966
    21  C   -0.001609   0.000091  -0.000005   0.000019  -0.001095   0.022673
    22  C    0.000021  -0.000005   0.000000  -0.000000   0.000018  -0.001479
    23  C    0.000701   0.000011  -0.000000   0.000000  -0.000005  -0.000114
    24  C   -0.000000   0.000000  -0.000000  -0.000000   0.000000   0.000000
    25  C    0.000000  -0.000000   0.000000   0.000000  -0.000000  -0.000000
    26  C   -0.000000  -0.000000   0.000000  -0.000000   0.000000  -0.000000
    27  H   -0.000000  -0.000000   0.000000   0.000000   0.000000  -0.000000
    28  H   -0.000000   0.000000   0.000000   0.000000  -0.000000   0.000000
    29  H   -0.000000   0.000000   0.000000  -0.000000   0.000000   0.000000
    30  H    0.000000   0.000000  -0.000000   0.000000  -0.000000  -0.000000
    31  H   -0.000001  -0.000000   0.000000   0.000000   0.000000   0.000000
    32  H    0.001967  -0.000046   0.000000  -0.000000  -0.000000  -0.000042
    33  H   -0.083018  -0.018552   0.000492  -0.000010  -0.000382   0.018953
    34  H   -0.076091   0.434153  -0.081247   0.015412  -0.002073   0.018331
    35  H    0.015744  -0.076637   0.436433  -0.084872   0.015086  -0.001362
    36  H   -0.001401   0.015125  -0.084803   0.436359  -0.076844   0.015675
    37  H    0.018072  -0.002108   0.015566  -0.081788   0.437452  -0.078886
    38  H    0.019355  -0.000355  -0.000021   0.000539  -0.018941  -0.084244
    39  H   -0.000023   0.000001  -0.000000   0.000000  -0.000061   0.001269
    40  H   -0.000002   0.000000   0.000000  -0.000000  -0.000000   0.000017
    41  H   -0.000000  -0.000000   0.000000  -0.000000  -0.000000   0.000000
    42  H    0.000000  -0.000000   0.000000  -0.000000   0.000000  -0.000000
              19         20         21         22         23         24
     1  C   -0.000000  -0.000000  -0.000000  -0.000000  -0.000004   0.020253
     2  C   -0.000000  -0.000000   0.000000   0.000001   0.000004  -0.002306
     3  C    0.000000   0.000000  -0.000001  -0.000062  -0.000478   0.026656
     4  C   -0.000000   0.000008  -0.000118   0.000190   0.023272   0.030345
     5  C   -0.000002  -0.000101   0.001040  -0.029321  -0.151787  -0.146293
     6  C    0.000082  -0.003809   0.022131  -0.148010   0.230783   0.034171
     7  C    0.000002  -0.000403   0.000293   0.025730   0.014738   0.224544
     8  C   -0.000001   0.000293  -0.000104  -0.003561  -0.151744  -0.163686
     9  C   -0.000485   0.025730  -0.003561   0.028053   0.000483   0.020254
    10  C    0.024489   0.014738  -0.151744   0.000483   0.170345  -0.000639
    11  C    0.034171   0.022264   0.031280  -0.137594   0.004781   0.000082
    12  C   -0.146293   0.015202   0.027293  -0.003491   0.019800  -0.000002
    13  C    0.030345  -0.150597  -0.001609   0.000021   0.000701  -0.000000
    14  C    0.026656  -0.001936   0.000091  -0.000005   0.000011   0.000000
    15  C   -0.002306   0.000327  -0.000005   0.000000  -0.000000  -0.000000
    16  C    0.020253  -0.001312   0.000019  -0.000000   0.000000  -0.000000
    17  C   -0.163743   0.019034  -0.001095   0.000018  -0.000005   0.000000
    18  C    0.197755   0.154966   0.022673  -0.001479  -0.000114   0.000000
    19  C    5.756337   0.224544  -0.163686   0.020254  -0.000639  -0.000000
    20  C    0.224544   5.504191   0.155643   0.154637  -0.174667   0.000002
    21  C   -0.163686   0.155643   5.493615   0.226429   0.136503  -0.000001
    22  C    0.020254   0.154637   0.226429   5.515828   0.179439  -0.000485
    23  C   -0.000639  -0.174667   0.136503   0.179439   5.612015   0.024489
    24  C   -0.000000   0.000002  -0.000001  -0.000485   0.024489   5.756337
    25  C    0.000000  -0.000001   0.000005   0.000061  -0.003550   0.197755
    26  C    0.000000   0.000000  -0.000000   0.000001   0.000116  -0.163743
    27  H    0.000000  -0.000000   0.000000   0.000000   0.000000  -0.000503
    28  H   -0.000000   0.000000  -0.000000  -0.000000   0.000000   0.000047
    29  H   -0.000000   0.000000  -0.000000   0.000003  -0.000038  -0.000350
    30  H   -0.000000  -0.000070   0.001442   0.012491  -0.040306  -0.002155
    31  H   -0.000000   0.000010  -0.000001   0.000049  -0.001826  -0.021249
    32  H    0.000029  -0.001312  -0.000038  -0.000295   0.017924  -0.000650
    33  H   -0.002155   0.019901  -0.000317  -0.000013  -0.001494  -0.000000
    34  H   -0.000350  -0.000008   0.000001  -0.000000   0.000000  -0.000000
    35  H    0.000047  -0.000002   0.000000  -0.000000   0.000000  -0.000000
    36  H   -0.000503   0.000009  -0.000000   0.000000  -0.000000   0.000000
    37  H   -0.022453   0.000720  -0.000049   0.000001  -0.000000   0.000000
    38  H    0.442736  -0.085050  -0.021016   0.001136  -0.000073  -0.000000
    39  H   -0.021249  -0.091127   0.444368  -0.076968   0.017031  -0.000000
    40  H   -0.000650   0.017239  -0.078544   0.422575  -0.055350   0.000029
    41  H   -0.000000   0.000000  -0.000000   0.000012  -0.000164   0.442736
    42  H    0.000000  -0.000000   0.000000   0.000000   0.000000  -0.022453
              25         26         27         28         29         30
     1  C    0.146435   0.221715   0.436359  -0.084872   0.015412  -0.000010
     2  C   -0.160827   0.147975  -0.084803   0.436433  -0.081247   0.000492
     3  C    0.045103  -0.177089   0.015125  -0.076637   0.434153  -0.018552
     4  C   -0.040372   0.046437  -0.001401   0.015744  -0.076091  -0.083018
     5  C    0.021756   0.026401   0.000048  -0.000512  -0.023462   0.414311
     6  C   -0.133864  -0.001321  -0.000001   0.000006   0.000513  -0.051403
     7  C    0.154966   0.019034   0.000009  -0.000002  -0.000008   0.019901
     8  C    0.022673  -0.001095  -0.000000   0.000000   0.000001  -0.000317
     9  C   -0.001479   0.000018   0.000000  -0.000000  -0.000000  -0.000013
    10  C   -0.000114  -0.000005  -0.000000   0.000000   0.000000  -0.001494
    11  C   -0.000003  -0.000000   0.000000  -0.000000   0.000000   0.000033
    12  C    0.000000  -0.000000   0.000000   0.000000   0.000000   0.000000
    13  C    0.000000  -0.000000  -0.000000  -0.000000  -0.000000   0.000000
    14  C   -0.000000  -0.000000  -0.000000   0.000000   0.000000   0.000000
    15  C    0.000000   0.000000   0.000000   0.000000   0.000000  -0.000000
    16  C    0.000000  -0.000000   0.000000   0.000000  -0.000000   0.000000
    17  C   -0.000000   0.000000   0.000000  -0.000000   0.000000  -0.000000
    18  C   -0.000000  -0.000000  -0.000000   0.000000   0.000000  -0.000000
    19  C    0.000000   0.000000   0.000000  -0.000000  -0.000000  -0.000000
    20  C   -0.000001   0.000000  -0.000000   0.000000   0.000000  -0.000070
    21  C    0.000005  -0.000000   0.000000  -0.000000  -0.000000   0.001442
    22  C    0.000061   0.000001   0.000000  -0.000000   0.000003   0.012491
    23  C   -0.003550   0.000116   0.000000   0.000000  -0.000038  -0.040306
    24  C    0.197755  -0.163743  -0.000503   0.000047  -0.000350  -0.002155
    25  C    5.462397   0.197662   0.015675  -0.001362   0.018331   0.018953
    26  C    0.197662   5.470971  -0.076844   0.015086  -0.002073  -0.000382
    27  H    0.015675  -0.076844   0.668948  -0.012387  -0.000316  -0.000001
    28  H   -0.001362   0.015086  -0.012387   0.668885  -0.012451  -0.000010
    29  H    0.018331  -0.002073  -0.000316  -0.012451   0.676634   0.009257
    30  H    0.018953  -0.000382  -0.000001  -0.000010   0.009257   0.687868
    31  H    0.001269  -0.000061  -0.000000   0.000000   0.000000   0.000011
    32  H    0.000017  -0.000000  -0.000000   0.000000  -0.000000   0.000000
    33  H   -0.000000  -0.000000  -0.000000   0.000000   0.000000  -0.000000
    34  H    0.000000   0.000000   0.000000   0.000000  -0.000000   0.000000
    35  H    0.000000  -0.000000   0.000000   0.000000   0.000000   0.000000
    36  H   -0.000000   0.000000   0.000000   0.000000   0.000000  -0.000000
    37  H   -0.000000   0.000000   0.000000  -0.000000   0.000000  -0.000000
    38  H    0.000000  -0.000000   0.000000  -0.000000  -0.000000   0.000000
    39  H    0.000000   0.000000  -0.000000   0.000000   0.000000   0.000045
    40  H   -0.000042  -0.000000  -0.000000   0.000000  -0.000027   0.000664
    41  H   -0.084244  -0.018941  -0.000014  -0.000001   0.000012   0.000026
    42  H   -0.078886   0.437452  -0.012382  -0.000320   0.000036   0.000012
              31         32         33         34         35         36
     1  C    0.000000  -0.000000   0.000000  -0.000000   0.000000   0.000000
     2  C   -0.000000   0.000000  -0.000000   0.000000   0.000000   0.000000
     3  C    0.000001   0.000000   0.000000   0.000000   0.000000  -0.000000
     4  C   -0.000023  -0.000002   0.000000  -0.000000  -0.000000  -0.000000
     5  C   -0.000406   0.000050   0.000000   0.000000   0.000000   0.000000
     6  C    0.016312  -0.001657   0.000033   0.000000  -0.000000   0.000000
     7  C   -0.091127   0.017239  -0.000070   0.000000   0.000000  -0.000000
     8  C    0.444368  -0.078544   0.001442  -0.000000  -0.000000   0.000000
     9  C   -0.076968   0.422575   0.012491   0.000003  -0.000000   0.000000
    10  C    0.017031  -0.055350  -0.040306  -0.000038   0.000000   0.000000
    11  C   -0.000374  -0.041363  -0.051403   0.000513   0.000006  -0.000001
    12  C    0.000003   0.009873   0.414311  -0.023462  -0.000512   0.000048
[...]
 0005811,-0.00020673,0.00002575,0.00023207,-0.00003981,-0.00001168,-0.0
 0145676,-0.00241141,-0.00124844,-0.00416715,0.00985072,-0.00668819,-0.
 03810345,0.14172789,-0.19542112,-0.00047505,0.00654447,-0.00283626,0.0
 0186110,-0.00235798,-0.00162774,-0.00027756,-0.00009050,0.00006185,0.0
 0008033,-0.00019013,0.00002891,0.00000338,-0.00000935,0.00001132,-0.00
 000974,0.00000126,-0.00000407,0.00000507,-0.00000846,0.00000922,-0.000
 00295,0.00000036,0.00000006,-0.00000370,-0.00000080,0.00000148,0.00000
 132,-0.00000131,0.00000344,-0.00000249,0.00000079,0.00000404,-0.000016
 64,-0.00002195,-0.00003124,0.00001480,-0.00000046,0.00001040,0.0000172
 8,-0.00045919,-0.00057175,0.00015420,0.00021509,-0.00000490,0.00003186
 ,0.00000591,0.00004196,0.00003364,0.00013429,0.00009588,0.00072953,-0.
 00010226,0.00033144,0.04118636,-0.15804328,0.20145078,-0.00001025,0.00
 001111,-0.00001288,-0.00000322,-0.00001926,0.00002106,-0.00003747,0.00
 002714,-0.00003154,0.00002523,-0.00004774,0.00005594,-0.00003072,0.000
 02537,-0.00004531,0.00051478,0.00093085,-0.00099814,-0.00039308,0.0000
 1496,-0.00000519,-0.00005366,-0.00002784,0.00001692,0.00014510,0.00002
 944,0.00004599,-0.00063195,-0.00015002,0.00015542,-0.00359382,-0.00149
 191,0.00109892,0.00054981,-0.00071836,0.00082120,0.00018239,-0.0000517
 5,0.00007901,-0.00003861,0.00002646,-0.00003431,-0.00001987,-0.0000244
 0,0.00002626,0.00003069,0.00000468,-0.00000258,-0.00003595,-0.00001179
 ,0.00000175,0.00012615,0.00029759,-0.00030673,0.00120875,-0.00098380,0
 .00134048,0.00743704,-0.01511123,0.01687735,-0.06911154,0.03626774,-0.
 04214529,-0.00259326,0.02048544,-0.02306942,-0.00493859,-0.00059325,-0
 .00035710,-0.00000346,0.00009004,-0.00009847,0.00003806,0.00002054,-0.
 00002379,-0.00001067,-0.00001865,0.00002001,-0.00000534,-0.00000065,0.
 00000016,-0.00000865,-0.00000160,0.00000109,0.00000100,-0.00000870,0.0
 0000926,0.00000671,-0.00002543,0.00002800,0.00000581,0.00000420,-0.000
 01409,-0.00000804,0.00004169,-0.00004860,-0.00025795,-0.00016432,0.000
 15222,0.00000542,0.00001695,-0.00001894,-0.00000035,0.00000406,-0.0000
 0456,0.00000525,0.00000334,-0.00000273,-0.00002636,0.00000241,-0.00000
 484,-0.00043606,0.00038730,-0.00047071,0.07082638,0.00001252,0.0000007
 8,-0.00000099,0.00000660,-0.00000253,0.00000137,0.00000305,-0.00002025
 ,0.00000716,-0.00000507,-0.00000934,-0.00001494,-0.00000464,0.00010646
 ,0.00011341,-0.00011422,-0.00005615,0.00023799,0.00013089,-0.00026899,
 -0.00029790,0.00000481,0.00008149,0.00005945,0.00004893,-0.00050206,-0
 .00047457,-0.00027548,-0.00005202,-0.00051338,-0.00276439,0.00190305,0
 .00197261,0.00060116,-0.00032675,0.00052851,0.00002268,0.00001552,-0.0
 0015079,0.00000670,0.00008487,-0.00005588,-0.00007487,-0.00000568,-0.0
 0001249,-0.00001617,-0.00004655,0.00004483,0.00005534,0.00002899,0.000
 10288,-0.00028970,0.00002511,-0.00021963,0.00163868,-0.00091916,-0.001
 47473,0.00451341,-0.00585595,0.01090094,0.03651006,-0.16422512,0.14177
 237,-0.00055201,0.00092293,0.00445023,0.00047259,0.00571674,0.00364424
 ,-0.00001305,-0.00002302,0.00001282,0.00001003,0.00002978,0.00002833,-
 0.00000584,0.00000533,-0.00001062,0.00000283,0.00000131,0.00000130,0.0
 0000429,0.00000148,-0.00000069,-0.00000158,0.00000552,-0.00000041,0.00
 001124,-0.00000346,0.00001130,0.00000420,0.00006715,0.00007663,-0.0000
 1263,0.00002149,0.00000870,-0.00018627,-0.00002829,0.00016545,0.000017
 64,0.00000987,0.00000119,-0.00000733,0.00000159,-0.00000116,-0.0000087
 9,-0.00000422,-0.00000451,-0.00001907,0.00001278,-0.00001113,-0.000704
 56,0.00033996,-0.00022141,-0.03943353,0.16573383,-0.00001443,-0.000001
 09,-0.00000079,-0.00000736,-0.00000051,-0.00000170,-0.00000506,0.00000
 891,-0.00002409,0.00000903,-0.00001803,-0.00000212,-0.00001232,0.00011
 558,0.00008199,0.00015068,0.00031366,-0.00016601,-0.00013262,-0.000306
 29,-0.00022151,-0.00001897,0.00005709,0.00007113,0.00002456,-0.0004759
 8,-0.00041199,0.00029334,-0.00050429,0.00007470,0.00249772,0.00206474,
 0.00179072,-0.00062931,0.00043298,-0.00040708,-0.00000281,-0.00015618,
 0.00004833,-0.00001260,-0.00005445,0.00009253,0.00008174,-0.00000883,0
 .00000351,0.00002033,0.00004634,-0.00005417,-0.00007205,0.00009802,0.0
 0000597,0.00033886,-0.00017711,0.00006362,-0.00154234,-0.00166461,-0.0
 0065046,-0.00469547,0.00948005,-0.00699786,-0.04241166,0.14175483,-0.1
 9655861,0.00005649,0.00597341,-0.00155469,-0.00152875,0.00356707,0.004
 96888,0.00001485,0.00002028,-0.00003172,-0.00001225,0.00002909,0.00002
 203,0.00000594,-0.00001155,0.00000918,-0.00000367,0.00000104,0.0000008
 9,-0.00000539,-0.00000112,0.00000141,0.00000143,-0.00000093,0.00000637
 ,-0.00001231,0.00000865,-0.00000432,-0.00001409,0.00007663,0.00005133,
 0.00001112,0.00001264,0.00001716,0.00017635,0.00016704,-0.00003636,-0.
 00001971,0.00000114,0.00000711,0.00000796,-0.00000033,0.00000196,0.000
 01061,-0.00000364,-0.00000298,0.00001877,-0.00000957,0.00001579,0.0007
 2954,-0.00014236,0.00039426,0.04664665,-0.15726334,0.20152257,0.000006
 33,-0.00001548,0.00001700,-0.00001700,0.00001720,-0.00001857,0.0000466
 5,0.00001049,-0.00000665,-0.00004195,0.00006131,-0.00005301,-0.0028726
 7,0.00168415,-0.00206855,-0.00110775,-0.00069832,0.00083861,0.00013728
 ,0.00001035,-0.00000113,0.00001074,0.00000204,0.00000449,0.00042736,0.
 00013222,-0.00013252,0.00000749,0.00117935,-0.00156820,-0.00006108,0.0
 0031290,-0.00032772,0.00022311,0.00001029,0.00004570,-0.00008169,0.000
 05771,-0.00007626,0.00006607,0.00001887,-0.00002103,-0.00004368,0.0000
 4689,-0.00005282,-0.00008781,-0.00003445,0.00002415,0.00005042,-0.0000
 9119,0.00010786,-0.00046538,0.00012849,-0.00010481,-0.00026257,-0.0008
 5695,0.00091331,-0.00364758,0.00201196,-0.00317178,-0.01911246,-0.0164
 0024,0.01623664,-0.20471649,-0.10097481,0.09895562,0.00898319,0.003131
 71,-0.00302103,0.00001226,-0.00005960,0.00006749,-0.00007210,-0.000015
 05,0.00000902,0.00002178,0.00001822,-0.00001981,0.00000694,-0.00000178
 ,0.00000222,0.00001211,0.00000362,-0.00000314,-0.00000807,-0.00000799,
 0.00000592,-0.00339002,0.00113090,-0.00158508,-0.00000804,-0.00001263,
 0.00001112,-0.00001450,0.00008757,-0.00008954,-0.00002202,-0.00002620,
 0.00002394,0.00000116,-0.00000541,0.00000603,-0.00000801,-0.00000296,0
 .00000327,-0.00001804,-0.00000754,0.00000642,0.00000028,0.00000982,-0.
 00000928,-0.00001055,0.00003622,-0.00006185,0.00118300,0.00040003,0.00
 006936,0.22485649,0.00003271,0.00000742,0.00000143,-0.00000181,-0.0000
 3600,0.00001555,0.00002653,-0.00002164,0.00000298,0.00024937,0.0002837
 1,-0.00055823,-0.00039284,-0.00042964,0.00058387,-0.00101996,-0.000873
 71,-0.00140849,0.00002330,-0.00009501,0.00010150,-0.00002588,-0.000035
 57,-0.00005318,-0.00097272,-0.00007088,0.00028266,0.00218527,0.0002454
 1,0.00402295,0.00051559,-0.00013027,-0.00013332,-0.00008192,-0.0002788
 8,-0.00031972,0.00003639,0.00002226,0.00008303,-0.00002717,0.00003981,
 0.00003129,0.00001548,-0.00002415,-0.00000099,-0.00000266,0.00007532,0
 .00002876,-0.00001610,-0.00002376,-0.00003519,0.00013015,-0.00050252,-
 0.00050280,-0.00001411,0.00020616,-0.00008029,0.00110646,0.00541123,0.
 00469880,0.00526085,0.00718249,-0.00132153,-0.10138889,-0.11526212,0.0
 7717330,-0.01538215,-0.00563537,0.00855538,-0.00004607,0.00007485,-0.0
 0010213,-0.00011186,0.00004205,-0.00001930,-0.00000643,0.00006160,-0.0
 0004767,-0.00000647,0.00000442,-0.00000179,-0.00000997,-0.00000055,0.0
 0000052,0.00001408,0.00002888,0.00000391,0.00089682,0.00146538,-0.0000
 8132,0.00004169,0.00002149,0.00001264,0.00008757,-0.00025137,0.0001646
 2,0.00001875,0.00003202,0.00001578,0.00000328,0.00000128,-0.00000103,-
 0.00000248,-0.00000525,-0.00000355,0.00000020,0.00000548,0.00000252,-0
 .00000064,-0.00001006,-0.00001174,-0.00001507,0.00015461,0.00015201,0.
 00017489,-0.00273332,-0.00341181,0.10872397,0.11103892,-0.00003597,-0.
 00000206,0.00000622,0.00000234,0.00001693,-0.00004017,-0.00002429,0.00
 000182,-0.00002444,-0.00025975,-0.00057185,0.00036928,0.00021462,0.000
 73425,-0.00066422,0.00119218,-0.00138521,-0.00047879,-0.00001537,0.000
 10056,-0.00011587,0.00003519,-0.00005116,-0.00002346,0.00108210,0.0003
 6266,-0.00007000,-0.00267398,0.00395012,-0.00077474,-0.00055052,-0.000
 14800,-0.00016268,0.00014707,-0.00031304,-0.00020956,-0.00005282,0.000
 08457,-0.00000140,0.00002958,0.00003463,0.00003414,-0.00001829,0.00000
 129,-0.00002880,-0.00001079,0.00002646,0.00007179,0.00002531,-0.000040
 62,-0.00000822,-0.00010664,-0.00050292,-0.00042336,-0.00001320,-0.0001
 4132,0.00028844,-0.00217639,0.00476436,0.00421791,-0.00757481,-0.00288
 986,0.00826211,0.09941081,0.07720328,-0.11605008,0.01733076,0.00989584
 ,-0.00646290,0.00005262,-0.00010311,0.00010213,0.00011544,-0.00001229,
 0.00005373,0.00000729,-0.00004588,0.00006962,0.00000738,-0.00000145,0.
 00000534,0.00001179,0.00000151,-0.00000022,-0.00001835,0.00000231,0.00
 002763,-0.00132776,-0.00006437,0.00130697,-0.00004860,0.00000870,0.000
 01716,-0.00008954,0.00016462,-0.00029483,-0.00002547,0.00001253,0.0000
 2953,-0.00000353,-0.00000166,0.00000169,0.00000275,-0.00000358,-0.0000
 0418,-0.00000209,0.00000196,0.00000546,0.00000222,-0.00001098,-0.00000
 846,-0.00000548,0.00015572,0.00012230,0.00031685,-0.00339551,-0.002093
 00,-0.10497314,-0.08783120,0.11292860,0.00014387,0.00030919,-0.0003242
 4,0.00019110,-0.00011178,0.00015161,0.00047749,-0.00069541,0.00079063,
 -0.00349331,-0.00166748,0.00116856,-0.00079398,-0.00021411,0.00020882,
 -0.00481936,-0.00046454,-0.00027505,-0.00200395,0.01943289,-0.02182516
 ,0.00108283,0.00161554,-0.00138224,0.00016396,-0.00027536,0.00031584,0
 .00015277,0.00017137,-0.00016386,0.00002355,-0.00010185,0.00010991,-0.
 00002507,0.00002855,-0.00003259,0.00000426,-0.00001363,0.00001538,-0.0
 0000534,0.00000783,-0.00000895,-0.00000073,0.00000034,-0.00000034,-0.0
 0000945,0.00000088,-0.00000161,0.00000294,-0.00000630,0.00000717,-0.00
 000666,0.00000315,-0.00000380,-0.00000020,-0.00001013,0.00001107,0.000
 01487,0.00000546,-0.00000489,0.00000931,0.00007989,-0.00008759,-0.0004
 2561,-0.00007085,0.00003241,0.00024278,0.00098750,-0.00108491,-0.06736
 239,0.03232595,-0.03774317,0.00780136,-0.01556192,0.01735002,0.0012150
 5,-0.00084463,0.00129113,0.00001928,0.00000505,-0.00002161,-0.00002278
 ,0.00002991,-0.00003787,-0.00025721,-0.00017361,0.00015627,0.00003340,
 0.00006950,0.00000406,-0.00043606,-0.00070456,0.00072954,-0.00001055,-
 0.00001507,-0.00000548,-0.00000734,-0.00000921,0.00000923,-0.00000054,
 -0.00000252,0.00000259,-0.00000215,-0.00000054,0.00000038,-0.00000096,
 -0.00000030,0.00000021,0.00000017,0.00000054,-0.00000062,0.00000247,-0
 .00000028,0.00000050,-0.00004384,0.00001118,-0.00001155,0.00001941,0.0
 0000159,-0.00000098,0.06847227,-0.00019687,-0.00001567,-0.00007645,-0.
 00002672,-0.00002501,-0.00020057,0.00061998,-0.00029155,0.00049266,-0.
 00292597,0.00291902,0.00282754,-0.00019347,0.00004310,-0.00053112,0.00
 071091,0.00397701,0.00231103,0.00001087,-0.00028122,0.00513826,-0.0013
 3490,-0.00210311,-0.00257160,0.00026445,0.00004665,-0.00005141,-0.0000
 5077,-0.00000167,-0.00020622,0.00001049,0.00005514,-0.00000283,0.00000
 936,-0.00002215,0.00001582,0.00000122,0.00000247,-0.00000398,0.0000007
 5,-0.00000884,0.00000917,0.00000529,-0.00000275,0.00000204,0.00000987,
 0.00000117,-0.00000134,-0.00000439,0.00000683,-0.00000832,0.00000856,-
 0.00000292,0.00000165,-0.00000314,0.00000863,-0.00000884,0.00001250,0.
 00000750,-0.00000776,-0.00002229,-0.00001885,0.00002576,0.00011120,0.0
 0012624,0.00009196,-0.00029345,-0.00006840,0.00031138,0.03265369,-0.16
 366429,0.14175162,0.00401207,-0.00554395,0.01126794,0.00165510,-0.0016
 5576,-0.00223042,-0.00004521,0.00011924,0.00013065,-0.00003353,0.00004
 275,0.00000132,-0.00017173,0.00001327,0.00021522,0.00005747,-0.0006554
 8,-0.00046006,0.00038730,0.00033996,-0.00014236,0.00003622,0.00015461,
 0.00015572,0.00000145,0.00000376,0.00000156,-0.00000136,0.00000293,-0.
 00000123,0.00000317,0.00000157,-0.00000053,0.00000258,0.00000032,0.000
 00057,0.00000013,-0.00000138,0.00000215,-0.00000028,-0.00000231,0.0000
 0232,0.00001582,-0.00003346,-0.00002161,-0.00001277,0.00000934,-0.0000
 0150,-0.03458624,0.16622878,0.00023207,-0.00003981,-0.00001168,0.00005
 811,-0.00020673,0.00002575,-0.00065534,0.00039742,-0.00036854,0.002551
 98,0.00291866,0.00266029,0.00018612,-0.00053262,0.00017165,-0.00156719
 ,0.00222593,0.00347214,-0.00047505,0.00654447,-0.00283626,0.00186110,-
 0.00235798,-0.00162774,-0.00027756,-0.00009050,0.00006185,0.00008033,-
 0.00019013,0.00002891,-0.00001358,-0.00001096,0.00006294,-0.00001150,0
 .00001721,-0.00002812,-0.00000095,-0.00000505,0.00000426,-0.00000117,0
 .00000968,-0.00001127,-0.00000578,0.00000168,-0.00000351,-0.00001149,-
 0.00000200,0.00000066,0.00000507,-0.00000846,0.00000922,-0.00000974,0.
 00000126,-0.00000407,0.00000338,-0.00000935,0.00001132,-0.00001264,-0.
 00000827,0.00000780,0.00002473,0.00003316,-0.00002861,-0.00016772,0.00
 007878,0.00010383,0.00032320,0.00040413,-0.00018665,-0.03810345,0.1417
 2789,-0.19542112,-0.00416715,0.00985072,-0.00668819,-0.00145676,-0.002
 41141,-0.00124844,0.00003364,0.00013429,0.00009588,0.00003186,0.000005
 91,0.00004196,0.00015420,0.00021509,-0.00000490,0.00001728,-0.00045919
 ,-0.00057175,-0.00047071,-0.00022141,0.00039426,-0.00006185,0.00015201
 ,0.00012230,-0.00000249,0.00000079,0.00000404,0.00000132,-0.00000131,0
 .00000344,-0.00000370,-0.00000080,0.00000148,-0.00000295,0.00000036,0.
 00000006,-0.00000018,0.00000218,-0.00000184,0.00000050,0.00000232,-0.0
 0000270,-0.00001664,-0.00002195,-0.00003124,0.00001480,-0.00000046,0.0
 0001040,0.04118636,-0.15804328,0.20145078,0.00869580,-0.01640665,0.018
 31397,-0.00315598,-0.00197409,0.00134065,-0.00077447,-0.00023691,0.000
 24355,-0.00508716,-0.00044340,-0.00021506,0.00024102,0.00103159,-0.001
 12806,0.00019684,0.00008433,-0.00006505,0.00015919,-0.00027796,0.00032
 895,-0.00002318,0.00000422,-0.00001875,0.00002281,0.00001414,-0.000013
 42,-0.00004853,0.00003329,-0.00004039,0.00001110,-0.00001526,0.0000174
 4,-0.00000831,0.00000577,-0.00000691,0.00000435,-0.00000290,0.00000352
 ,-0.00000240,0.00000166,-0.00000193,0.00000124,0.00000037,-0.00000026,
 -0.00000357,0.00000108,-0.00000140,0.00000050,-0.00000180,0.00000204,-
 0.00000310,0.00000170,-0.00000214,-0.00000203,-0.00000320,0.00000343,-
 0.00000779,0.00000475,-0.00000511,-0.00001177,-0.00002223,0.00002356,0
 .00000462,0.00002253,-0.00002398,0.00000013,-0.00006405,0.00006711,0.0
 0149624,0.00125674,-0.00107174,-0.00194037,0.01941755,-0.02175277,-0.0
 6895163,0.03513576,-0.04090772,0.00113346,0.00059576,-0.00018395,0.000
 24308,-0.00075446,0.00083241,0.00009536,0.00007050,0.00001371,-0.00040
 170,0.00007690,-0.00012965,-0.00002636,-0.00001907,0.00001877,0.000000
 28,-0.00000064,0.00000222,-0.00000271,-0.00000232,0.00000225,-0.000000
 13,-0.00000065,0.00000064,-0.00000056,-0.00000014,0.00000007,-0.000000
 07,-0.00000012,0.00000010,-0.00000014,0.00000012,-0.00000019,0.0000001
 7,0.00000013,-0.00000018,0.00000114,0.00000034,-0.00000060,-0.00000265
 ,-0.00001972,0.00002148,-0.00034566,-0.00069737,0.00072953,0.06849293,
 0.00484134,-0.00504410,0.01122481,-0.00308278,0.00423384,0.00424600,-0
 .00011428,0.00002285,-0.00062842,0.00072116,0.00317411,0.00163627,-0.0
 0030567,-0.00010883,0.00027232,0.00000168,0.00000862,-0.00021283,0.000
 28118,-0.00001472,-0.00014368,-0.00004935,0.00003635,0.00014516,0.0000
 5669,-0.00002222,0.00002138,0.00001594,0.00002509,-0.00002215,-0.00000
 052,0.00000633,-0.00000494,0.00000423,-0.00000995,0.00001071,-0.000000
 98,0.00000163,-0.00000213,0.00000088,-0.00000700,0.00000677,0.00000440
 ,-0.00000153,0.00000123,0.00000700,0.00000081,-0.00000107,-0.00000290,
 0.00000553,-0.00000671,0.00000525,-0.00000166,0.00000293,-0.00000098,0
 .00000543,-0.00000686,0.00001040,-0.00000504,-0.00000397,-0.00000621,0
 .00000036,-0.00000054,0.00001171,-0.00000681,0.00000150,-0.00004786,0.
 00005864,-0.00001764,-0.00105844,-0.00122487,-0.00178838,-0.00027240,-
 0.00032974,0.00439793,0.03480902,-0.16435183,0.14206728,0.00014956,-0.
 00247001,-0.00317834,0.00023577,-0.00027531,0.00054065,0.00007912,-0.0
 0068185,-0.00052465,0.00006583,0.00010333,0.00013457,0.00000241,0.0000
 1278,-0.00000957,0.00000982,-0.00001006,-0.00001098,-0.00000244,0.0000
 0102,0.00000030,-0.00000141,0.00000181,-0.00000106,0.00000262,0.000001
 33,-0.00000062,0.00000247,0.00000010,0.00000055,0.00000012,-0.00000127
 ,0.00000199,0.00000054,-0.00000138,0.00000218,0.00000221,0.00000030,0.
 00000447,-0.00000289,0.00000594,-0.00000654,0.00044403,0.00028847,-0.0
 0010226,-0.03681629,0.16657349,-0.00504337,0.00968639,-0.00616499,0.00
 255941,0.00432627,0.00372899,0.00010874,-0.00063730,0.00016715,-0.0014
 9523,0.00155195,0.00280084,0.00034195,0.00036914,-0.00022200,0.0000258
 1,-0.00020685,0.00004415,-0.00028570,-0.00018416,0.00001782,0.00004014
 ,0.00014903,0.00001073,-0.00006020,0.00001830,-0.00003098,-0.00002132,
 -0.00002089,0.00002531,0.00000124,-0.00000600,0.00000857,-0.00000521,0
 .00001082,-0.00001275,0.00000141,-0.00000226,0.00000236,-0.00000107,0.
 00000683,-0.00000849,-0.00000470,0.00000094,-0.00000207,-0.00000791,-0
 .00000150,0.00000045,0.00000325,-0.00000663,0.00000714,-0.00000604,0.0
 0000268,-0.00000271,0.00000098,-0.00000702,0.00000705,-0.00001133,-0.0
 0000438,-0.00000534,0.00000595,-0.00000170,0.00000258,-0.00001209,0.00
 000229,-0.00000960,0.00004931,-0.00001881,0.00006999,0.00147327,-0.001
 62075,-0.00089371,-0.00010814,0.00582354,-0.00272053,-0.04054855,0.142
 09094,-0.19653959,0.00030655,-0.00314604,-0.00189063,-0.00025612,0.000
 46895,-0.00033306,0.00000423,-0.00052528,-0.00058661,-0.00011748,0.000
 13537,0.00006409,-0.00000484,-0.00001113,0.00001579,-0.00000928,-0.000
 01174,-0.00000846,0.00000238,0.00000031,0.00000128,0.00000148,-0.00000
 101,0.00000215,-0.00000296,-0.00000082,0.00000128,-0.00000275,0.000000
 36,-0.00000016,-0.00000019,0.00000199,-0.00000167,-0.00000062,0.000002
 15,-0.00000184,-0.00000265,0.00000434,-0.00000074,0.00000297,-0.000007
 76,0.00000893,-0.00052517,-0.00018490,0.00033144,0.04360385,-0.1580456
 7,0.20211786\\-0.00002975,-0.00000273,0.00000084,-0.00003965,-0.000013
 26,0.00001171,-0.00001457,0.00005407,-0.00006049,0.00004631,-0.0001596
 1,0.00017881,-0.00004448,0.00004119,-0.00004849,0.00002309,-0.00004558
 ,0.00005178,-0.00012501,0.00014287,-0.00016611,0.00009002,-0.00002585,
 0.00003494,-0.00003276,0.00000886,-0.00001211,-0.00006282,-0.00001612,
 0.00001317,-0.00002309,0.00004558,-0.00005178,0.00004448,-0.00004119,0
 .00004849,-0.00004631,0.00015961,-0.00017881,0.00001457,-0.00005407,0.
 00006049,0.00003965,0.00001326,-0.00001171,0.00002975,0.00000273,-0.00
 000084,-0.00001935,0.00004956,-0.00005588,0.00002265,-0.00017002,0.000
 18854,-0.00003208,0.00013444,-0.00015010,0.00012501,-0.00014287,0.0001
 6611,-0.00009002,0.00002585,-0.00003494,0.00003276,-0.00000886,0.00001
 211,0.00006282,0.00001612,-0.00001317,0.00003208,-0.00013444,0.0001501
 0,-0.00002265,0.00017002,-0.00018854,0.00001935,-0.00004956,0.00005588
 ,0.00001750,0.00000786,-0.00000737,0.00002133,0.00000050,0.00000099,0.
 00002652,-0.00000762,0.00001030,-0.00001536,-0.00001235,0.00001246,-0.
 00002453,0.00000517,-0.00000746,-0.00000945,-0.00000466,0.00000444,0.0
 0001536,0.00001235,-0.00001246,-0.00002652,0.00000762,-0.00001030,-0.0
 0002133,-0.00000050,-0.00000099,-0.00001750,-0.00000786,0.00000737,-0.
 00001644,-0.00001260,0.00001266,0.00000662,-0.00002466,0.00002758,0.00
 002453,-0.00000517,0.00000746,0.00000945,0.00000466,-0.00000444,-0.000
 00662,0.00002466,-0.00002758,0.00001644,0.00001260,-0.00001266\\\@
 The archive entry for this job was punched.


 IT IS UNWORTHY OF EXCELLENT MEN TO LOSE HOURS LIKE SLAVES IN THE LABOR
 OF CALCULATION WHICH COULD BE SAFELY RELEGATED TO ANYONE ELSE
 IF A MACHINE WERE USED.
    -- G.W. VON LEIBNIZ
 Job cpu time:       0 days  0 hours 56 minutes 28.0 seconds.
 Elapsed time:       0 days  0 hours  7 minutes  3.5 seconds.
 File lengths (MBytes):  RWF=    480 Int=      0 D2E=      0 Chk=     15 Scr=      1
 Normal termination of Gaussian 16 at Tue Oct  8 21:10:27 2024.
