 Entering Gaussian System, Link 0=g16
 Initial command:
 /opt/g16/l1.exe "/tmp/Gau-226901.inp" -scrdir="/tmp/"
 Entering Link 1 = /opt/g16/l1.exe PID=    226903.
  
 Copyright (c) 1988-2019, Gaussian, Inc.  All Rights Reserved.
  
 This is part of the Gaussian(R) 16 program.  It is based on
 the Gaussian(R) 09 system (copyright 2009, Gaussian, Inc.),
 the Gaussian(R) 03 system (copyright 2003, Gaussian, Inc.),
 the Gaussian(R) 98 system (copyright 1998, Gaussian, Inc.),
 the Gaussian(R) 94 system (copyright 1995, Gaussian, Inc.),
 the Gaussian 92(TM) system (copyright 1992, Gaussian, Inc.),
 the Gaussian 90(TM) system (copyright 1990, Gaussian, Inc.),
 the Gaussian 88(TM) system (copyright 1988, Gaussian, Inc.),
 the Gaussian 86(TM) system (copyright 1986, Carnegie Mellon
 University), and the Gaussian 82(TM) system (copyright 1983,
 Carnegie Mellon University). Gaussian is a federally registered
 trademark of Gaussian, Inc.
  
 This software contains proprietary and confidential information,
 including trade secrets, belonging to Gaussian, Inc.
  
 This software is provided under written license and may be
 used, copied, transmitted, or stored only in accord with that
 written license.
  
 The following legend is applicable only to US Government
 contracts under FAR:
  
                    RESTRICTED RIGHTS LEGEND
  
 Use, reproduction and disclosure by the US Government is
 subject to restrictions as set forth in subparagraphs (a)
 and (c) of the Commercial Computer Software - Restricted
 Rights clause in FAR 52.227-19.
  
 Gaussian, Inc.
 340 Quinnipiac St., Bldg. 40, Wallingford CT 06492
  
  
 ---------------------------------------------------------------
 Warning -- This program may not be used in any manner that
 competes with the business of Gaussian, Inc. or will provide
 assistance to any competitor of Gaussian, Inc.  The licensee
 of this program is prohibited from giving any competitor of
 Gaussian, Inc. access to this program.  By using this program,
 the user acknowledges that Gaussian, Inc. is engaged in the
 business of creating and licensing software in the field of
 computational chemistry and represents and warrants to the
 licensee that it is not a competitor of Gaussian, Inc. and that
 it will not use this program in any manner prohibited above.
 ---------------------------------------------------------------
  

 Cite this work as:
 Gaussian 16, Revision C.01,
 M. J. Frisch, G. W. Trucks, H. B. Schlegel, G. E. Scuseria, 
 M. A. Robb, J. R. Cheeseman, G. Scalmani, V. Barone, 
 G. A. Petersson, H. Nakatsuji, X. Li, M. Caricato, A. V. Marenich, 
 J. Bloino, B. G. Janesko, R. Gomperts, B. Mennucci, H. P. Hratchian, 
 J. V. Ortiz, A. F. Izmaylov, J. L. Sonnenberg, D. Williams-Young, 
 F. Ding, F. Lipparini, F. Egidi, J. Goings, B. Peng, A. Petrone, 
 T. Henderson, D. Ranasinghe, V. G. Zakrzewski, J. Gao, N. Rega, 
 G. Zheng, W. Liang, M. Hada, M. Ehara, K. Toyota, R. Fukuda, 
 J. Hasegawa, M. Ishida, T. Nakajima, Y. Honda, O. Kitao, H. Nakai, 
 T. Vreven, K. Throssell, J. A. Montgomery, Jr., J. E. Peralta, 
 F. Ogliaro, M. J. Bearpark, J. J. Heyd, E. N. Brothers, K. N. Kudin, 
 V. N. Staroverov, T. A. Keith, R. Kobayashi, J. Normand, 
 K. Raghavachari, A. P. Rendell, J. C. Burant, S. S. Iyengar, 
 J. Tomasi, M. Cossi, J. M. Millam, M. Klene, C. Adamo, R. Cammi, 
 J. W. Ochterski, R. L. Martin, K. Morokuma, O. Farkas, 
 J. B. Foresman, and D. J. Fox, Gaussian, Inc., Wallingford CT, 2019.
 
 ******************************************
 Gaussian 16:  ES64L-G16RevC.01  3-Jul-2019
                31-Jul-2025 
 ******************************************
 %nprocshared=16
 Will use up to   16 processors via shared memory.
 %mem=16000MB
 ----------------------------------------------------------------------
 #N opt freq B3LYP/def2SVPP symm=veryloose em=gd3bj scale=0.961 press=0
 .987
 ----------------------------------------------------------------------
 1/18=20,19=15,26=3,38=1,113=-987000,114=961000/1,3;
 2/9=110,12=2,17=2,18=2,40=1/2;
 3/5=43,7=202,11=2,25=1,30=1,71=1,74=-5,124=41/1,2,3;
 4//1;
 5/5=2,38=5/2;
 6/7=2,8=2,9=2,10=2,28=1/1;
 7//1,2,3,16;
 1/18=20,19=15,26=3/3(2);
 2/9=110/2;
 99//99;
 2/9=110/2;
 3/5=43,7=202,11=2,25=1,30=1,71=1,74=-5,124=41/1,2,3;
 4/5=5,16=3,69=1/1;
 5/5=2,38=5/2;
 7//1,2,3,16;
 1/18=20,19=15,26=3/3(-5);
 2/9=110/2;
 6/7=2,8=2,9=2,10=2,19=2,28=1/1;
 99/9=1/99;
 ------------------------------------
 c1ccc2c(c1)-c1cccc3c1c-2cc1ccccc13_1
 ------------------------------------
 Symbolic Z-matrix:
 Charge =  0 Multiplicity = 1
 C                    -4.661     0.6085    0. 
 C                    -4.07586   1.90567   0. 
 C                    -2.66938   2.05834   0. 
 C                    -1.91912   0.94069   0. 
 C                    -2.46794  -0.32158   0. 
 C                    -3.83844  -0.53652   0. 
 C                    -1.28941  -1.30642   0. 
 C                    -1.25598  -2.65471   0. 
 C                     0.01979  -3.28237   0. 
 C                     1.21336  -2.49974   0. 
 C                     1.1133   -1.09664   0. 
 C                    -0.13528  -0.55632   0. 
 C                    -0.38784   0.75734   0. 
 C                     0.60751   1.67081   0. 
 C                     1.94364   1.1895    0. 
 C                     3.01672   2.08974   0. 
 C                     4.33506   1.60925   0. 
 C                     4.58496   0.22777   0. 
 C                     3.51774  -0.68164   0. 
 C                     2.20067  -0.20804   0. 
 H                    -5.7257    0.50211   0. 
 H                    -4.70415   2.77178   0. 
 H                    -2.21775   3.02836   0. 
 H                    -4.25131  -1.52366   0. 
 H                    -2.15729  -3.23138   0. 
 H                     0.08563  -4.35034   0. 
 H                     2.17232  -2.97439   0. 
 H                     0.39662   2.71982   0. 
 H                     2.8312    3.14353   0. 
 H                     5.15336   2.29866   0. 
 H                     5.59261  -0.13214   0. 
 H                     3.70958  -1.7343    0. 
 

 GradGradGradGradGradGradGradGradGradGradGradGradGradGradGradGradGradGrad
 Berny optimization.
 Initialization pass.
                           ----------------------------
                           !    Initial Parameters    !
                           ! (Angstroms and Degrees)  !
 --------------------------                            --------------------------
 ! Name  Definition              Value          Derivative Info.                !
 --------------------------------------------------------------------------------
 ! R1    R(1,2)                  1.423          estimate D2E/DX2                !
 ! R2    R(1,6)                  1.4099         estimate D2E/DX2                !
 ! R3    R(1,21)                 1.07           estimate D2E/DX2                !
 ! R4    R(2,3)                  1.4147         estimate D2E/DX2                !
 ! R5    R(2,22)                 1.07           estimate D2E/DX2                !
 ! R6    R(3,4)                  1.3461         estimate D2E/DX2                !
 ! R7    R(3,23)                 1.07           estimate D2E/DX2                !
 ! R8    R(4,5)                  1.3764         estimate D2E/DX2                !
 ! R9    R(4,13)                 1.5422         estimate D2E/DX2                !
 ! R10   R(5,6)                  1.3873         estimate D2E/DX2                !
 ! R11   R(5,7)                  1.5359         estimate D2E/DX2                !
 ! R12   R(6,24)                 1.07           estimate D2E/DX2                !
 ! R13   R(7,8)                  1.3487         estimate D2E/DX2                !
 ! R14   R(7,12)                 1.3765         estimate D2E/DX2                !
 ! R15   R(8,9)                  1.4218         estimate D2E/DX2                !
 ! R16   R(8,25)                 1.07           estimate D2E/DX2                !
 ! R17   R(9,10)                 1.4273         estimate D2E/DX2                !
 ! R18   R(9,26)                 1.07           estimate D2E/DX2                !
 ! R19   R(10,11)                1.4067         estimate D2E/DX2                !
 ! R20   R(10,27)                1.07           estimate D2E/DX2                !
 ! R21   R(11,12)                1.3605         estimate D2E/DX2                !
 ! R22   R(11,20)                1.4043         estimate D2E/DX2                !
 ! R23   R(12,13)                1.3377         estimate D2E/DX2                !
 ! R24   R(13,14)                1.351          estimate D2E/DX2                !
 ! R25   R(14,15)                1.4202         estimate D2E/DX2                !
 ! R26   R(14,28)                1.07           estimate D2E/DX2                !
 ! R27   R(15,16)                1.4007         estimate D2E/DX2                !
 ! R28   R(15,20)                1.421          estimate D2E/DX2                !
 ! R29   R(16,17)                1.4032         estimate D2E/DX2                !
 ! R30   R(16,29)                1.07           estimate D2E/DX2                !
 ! R31   R(17,18)                1.4039         estimate D2E/DX2                !
 ! R32   R(17,30)                1.07           estimate D2E/DX2                !
 ! R33   R(18,19)                1.4021         estimate D2E/DX2                !
 ! R34   R(18,31)                1.07           estimate D2E/DX2                !
 ! R35   R(19,20)                1.3996         estimate D2E/DX2                !
 ! R36   R(19,32)                1.07           estimate D2E/DX2                !
 ! A1    A(2,1,6)              120.0276         estimate D2E/DX2                !
 ! A2    A(2,1,21)             119.9862         estimate D2E/DX2                !
 ! A3    A(6,1,21)             119.9862         estimate D2E/DX2                !
 ! A4    A(1,2,3)              120.4751         estimate D2E/DX2                !
 ! A5    A(1,2,22)             119.7625         estimate D2E/DX2                !
 ! A6    A(3,2,22)             119.7624         estimate D2E/DX2                !
 ! A7    A(2,3,4)              117.6774         estimate D2E/DX2                !
 ! A8    A(2,3,23)             121.1613         estimate D2E/DX2                !
 ! A9    A(4,3,23)             121.1613         estimate D2E/DX2                !
 ! A10   A(3,4,5)              122.6288         estimate D2E/DX2                !
 ! A11   A(3,4,13)             130.7005         estimate D2E/DX2                !
 ! A12   A(5,4,13)             106.6707         estimate D2E/DX2                !
 ! A13   A(4,5,6)              122.4119         estimate D2E/DX2                !
 ! A14   A(4,5,7)              106.3854         estimate D2E/DX2                !
 ! A15   A(6,5,7)              131.2027         estimate D2E/DX2                !
 ! A16   A(1,6,5)              116.7792         estimate D2E/DX2                !
 ! A17   A(1,6,24)             121.6104         estimate D2E/DX2                !
 ! A18   A(5,6,24)             121.6104         estimate D2E/DX2                !
 ! A19   A(5,7,8)              131.304          estimate D2E/DX2                !
 ! A20   A(5,7,12)             107.095          estimate D2E/DX2                !
 ! A21   A(8,7,12)             121.601          estimate D2E/DX2                !
 ! A22   A(7,8,9)              117.6165         estimate D2E/DX2                !
 ! A23   A(7,8,25)             121.1918         estimate D2E/DX2                !
 ! A24   A(9,8,25)             121.1918         estimate D2E/DX2                !
 ! A25   A(8,9,10)             120.5508         estimate D2E/DX2                !
 ! A26   A(8,9,26)             119.7246         estimate D2E/DX2                !
 ! A27   A(10,9,26)            119.7246         estimate D2E/DX2                !
 ! A28   A(9,10,11)            119.1735         estimate D2E/DX2                !
 ! A29   A(9,10,27)            120.4133         estimate D2E/DX2                !
 ! A30   A(11,10,27)           120.4133         estimate D2E/DX2                !
 ! A31   A(10,11,12)           117.4796         estimate D2E/DX2                !
 ! A32   A(10,11,20)           125.1764         estimate D2E/DX2                !
 ! A33   A(12,11,20)           117.344          estimate D2E/DX2                !
 ! A34   A(7,12,11)            123.5787         estimate D2E/DX2                !
 ! A35   A(7,12,13)            112.1385         estimate D2E/DX2                !
 ! A36   A(11,12,13)           124.2828         estimate D2E/DX2                !
 ! A37   A(4,13,12)            107.7104         estimate D2E/DX2                !
 ! A38   A(4,13,14)            130.6286         estimate D2E/DX2                !
 ! A39   A(12,13,14)           121.661          estimate D2E/DX2                !
 ! A40   A(13,14,15)           117.6464         estimate D2E/DX2                !
 ! A41   A(13,14,28)           121.1768         estimate D2E/DX2                !
 ! A42   A(15,14,28)           121.1768         estimate D2E/DX2                !
 ! A43   A(14,15,16)           120.1957         estimate D2E/DX2                !
 ! A44   A(14,15,20)           120.2311         estimate D2E/DX2                !
 ! A45   A(16,15,20)           119.5732         estimate D2E/DX2                !
 ! A46   A(15,16,17)           119.9806         estimate D2E/DX2                !
 ! A47   A(15,16,29)           120.0097         estimate D2E/DX2                !
 ! A48   A(17,16,29)           120.0097         estimate D2E/DX2                !
 ! A49   A(16,17,18)           120.2785         estimate D2E/DX2                !
 ! A50   A(16,17,30)           119.8608         estimate D2E/DX2                !
 ! A51   A(18,17,30)           119.8608         estimate D2E/DX2                !
 ! A52   A(17,18,19)           120.1819         estimate D2E/DX2                !
 ! A53   A(17,18,31)           119.9091         estimate D2E/DX2                !
 ! A54   A(19,18,31)           119.9091         estimate D2E/DX2                !
 ! A55   A(18,19,20)           119.7868         estimate D2E/DX2                !
 ! A56   A(18,19,32)           120.1066         estimate D2E/DX2                !
 ! A57   A(20,19,32)           120.1066         estimate D2E/DX2                !
 ! A58   A(11,20,15)           118.8347         estimate D2E/DX2                !
 ! A59   A(11,20,19)           120.9663         estimate D2E/DX2                !
 ! A60   A(15,20,19)           120.199          estimate D2E/DX2                !
 ! D1    D(6,1,2,3)              0.0            estimate D2E/DX2                !
 ! D2    D(6,1,2,22)           180.0            estimate D2E/DX2                !
 ! D3    D(21,1,2,3)           180.0            estimate D2E/DX2                !
 ! D4    D(21,1,2,22)            0.0            estimate D2E/DX2                !
 ! D5    D(2,1,6,5)              0.0            estimate D2E/DX2                !
 ! D6    D(2,1,6,24)           180.0            estimate D2E/DX2                !
 ! D7    D(21,1,6,5)           180.0            estimate D2E/DX2                !
 ! D8    D(21,1,6,24)            0.0            estimate D2E/DX2                !
 ! D9    D(1,2,3,4)              0.0            estimate D2E/DX2                !
 ! D10   D(1,2,3,23)           180.0            estimate D2E/DX2                !
 ! D11   D(22,2,3,4)           180.0            estimate D2E/DX2                !
 ! D12   D(22,2,3,23)            0.0            estimate D2E/DX2                !
 ! D13   D(2,3,4,5)              0.0            estimate D2E/DX2                !
 ! D14   D(2,3,4,13)           180.0            estimate D2E/DX2                !
 ! D15   D(23,3,4,5)           180.0            estimate D2E/DX2                !
 ! D16   D(23,3,4,13)            0.0            estimate D2E/DX2                !
 ! D17   D(3,4,5,6)              0.0            estimate D2E/DX2                !
 ! D18   D(3,4,5,7)            180.0            estimate D2E/DX2                !
 ! D19   D(13,4,5,6)           180.0            estimate D2E/DX2                !
 ! D20   D(13,4,5,7)             0.0            estimate D2E/DX2                !
 ! D21   D(3,4,13,12)          180.0            estimate D2E/DX2                !
 ! D22   D(3,4,13,14)            0.0            estimate D2E/DX2                !
 ! D23   D(5,4,13,12)            0.0            estimate D2E/DX2                !
 ! D24   D(5,4,13,14)          180.0            estimate D2E/DX2                !
 ! D25   D(4,5,6,1)              0.0            estimate D2E/DX2                !
 ! D26   D(4,5,6,24)           180.0            estimate D2E/DX2                !
 ! D27   D(7,5,6,1)            180.0            estimate D2E/DX2                !
 ! D28   D(7,5,6,24)             0.0            estimate D2E/DX2                !
 ! D29   D(4,5,7,8)            180.0            estimate D2E/DX2                !
 ! D30   D(4,5,7,12)             0.0            estimate D2E/DX2                !
 ! D31   D(6,5,7,8)              0.0            estimate D2E/DX2                !
 ! D32   D(6,5,7,12)           180.0            estimate D2E/DX2                !
 ! D33   D(5,7,8,9)            180.0            estimate D2E/DX2                !
 ! D34   D(5,7,8,25)             0.0            estimate D2E/DX2                !
 ! D35   D(12,7,8,9)             0.0            estimate D2E/DX2                !
 ! D36   D(12,7,8,25)          180.0            estimate D2E/DX2                !
 ! D37   D(5,7,12,11)          180.0            estimate D2E/DX2                !
 ! D38   D(5,7,12,13)            0.0            estimate D2E/DX2                !
 ! D39   D(8,7,12,11)            0.0            estimate D2E/DX2                !
 ! D40   D(8,7,12,13)          180.0            estimate D2E/DX2                !
 ! D41   D(7,8,9,10)             0.0            estimate D2E/DX2                !
 ! D42   D(7,8,9,26)           180.0            estimate D2E/DX2                !
 ! D43   D(25,8,9,10)          180.0            estimate D2E/DX2                !
 ! D44   D(25,8,9,26)            0.0            estimate D2E/DX2                !
 ! D45   D(8,9,10,11)            0.0            estimate D2E/DX2                !
 ! D46   D(8,9,10,27)          180.0            estimate D2E/DX2                !
 ! D47   D(26,9,10,11)         180.0            estimate D2E/DX2                !
 ! D48   D(26,9,10,27)           0.0            estimate D2E/DX2                !
 ! D49   D(9,10,11,12)           0.0            estimate D2E/DX2                !
 ! D50   D(9,10,11,20)         180.0            estimate D2E/DX2                !
 ! D51   D(27,10,11,12)        180.0            estimate D2E/DX2                !
 ! D52   D(27,10,11,20)          0.0            estimate D2E/DX2                !
 ! D53   D(10,11,12,7)           0.0            estimate D2E/DX2                !
 ! D54   D(10,11,12,13)        180.0            estimate D2E/DX2                !
 ! D55   D(20,11,12,7)         180.0            estimate D2E/DX2                !
 ! D56   D(20,11,12,13)          0.0            estimate D2E/DX2                !
 ! D57   D(10,11,20,15)        180.0            estimate D2E/DX2                !
 ! D58   D(10,11,20,19)          0.0            estimate D2E/DX2                !
 ! D59   D(12,11,20,15)          0.0            estimate D2E/DX2                !
 ! D60   D(12,11,20,19)        180.0            estimate D2E/DX2                !
 ! D61   D(7,12,13,4)            0.0            estimate D2E/DX2                !
 ! D62   D(7,12,13,14)         180.0            estimate D2E/DX2                !
 ! D63   D(11,12,13,4)         180.0            estimate D2E/DX2                !
 ! D64   D(11,12,13,14)          0.0            estimate D2E/DX2                !
 ! D65   D(4,13,14,15)         180.0            estimate D2E/DX2                !
 ! D66   D(4,13,14,28)           0.0            estimate D2E/DX2                !
 ! D67   D(12,13,14,15)          0.0            estimate D2E/DX2                !
 ! D68   D(12,13,14,28)        180.0            estimate D2E/DX2                !
 ! D69   D(13,14,15,16)        180.0            estimate D2E/DX2                !
 ! D70   D(13,14,15,20)          0.0            estimate D2E/DX2                !
 ! D71   D(28,14,15,16)          0.0            estimate D2E/DX2                !
 ! D72   D(28,14,15,20)        180.0            estimate D2E/DX2                !
 ! D73   D(14,15,16,17)        180.0            estimate D2E/DX2                !
 ! D74   D(14,15,16,29)          0.0            estimate D2E/DX2                !
 ! D75   D(20,15,16,17)          0.0            estimate D2E/DX2                !
 ! D76   D(20,15,16,29)        180.0            estimate D2E/DX2                !
 ! D77   D(14,15,20,11)          0.0            estimate D2E/DX2                !
 ! D78   D(14,15,20,19)        180.0            estimate D2E/DX2                !
 ! D79   D(16,15,20,11)        180.0            estimate D2E/DX2                !
 ! D80   D(16,15,20,19)          0.0            estimate D2E/DX2                !
 ! D81   D(15,16,17,18)          0.0            estimate D2E/DX2                !
 ! D82   D(15,16,17,30)        180.0            estimate D2E/DX2                !
 ! D83   D(29,16,17,18)        180.0            estimate D2E/DX2                !
 ! D84   D(29,16,17,30)          0.0            estimate D2E/DX2                !
 ! D85   D(16,17,18,19)          0.0            estimate D2E/DX2                !
 ! D86   D(16,17,18,31)        180.0            estimate D2E/DX2                !
 ! D87   D(30,17,18,19)        180.0            estimate D2E/DX2                !
 ! D88   D(30,17,18,31)          0.0            estimate D2E/DX2                !
 ! D89   D(17,18,19,20)          0.0            estimate D2E/DX2                !
 ! D90   D(17,18,19,32)        180.0            estimate D2E/DX2                !
 ! D91   D(31,18,19,20)        180.0            estimate D2E/DX2                !
 ! D92   D(31,18,19,32)          0.0            estimate D2E/DX2                !
 ! D93   D(18,19,20,11)        180.0            estimate D2E/DX2                !
 ! D94   D(18,19,20,15)          0.0            estimate D2E/DX2                !
 ! D95   D(32,19,20,11)          0.0            estimate D2E/DX2                !
 ! D96   D(32,19,20,15)        180.0            estimate D2E/DX2                !
 --------------------------------------------------------------------------------
 Trust Radius=3.00D-01 FncErr=1.00D-07 GrdErr=1.00D-06 EigMax=2.50D+02 EigMin=1.00D-04
 Number of steps in this run=    192 maximum allowed number of steps=    192.
 GradGradGradGradGradGradGradGradGradGradGradGradGradGradGradGradGradGrad

                          Input orientation:                          
 ---------------------------------------------------------------------
 Center     Atomic      Atomic             Coordinates (Angstroms)
 Number     Number       Type             X           Y           Z
 ---------------------------------------------------------------------
      1          6           0       -4.661001    0.608502    0.000000
      2          6           0       -4.075856    1.905669    0.000000
      3          6           0       -2.669379    2.058343    0.000000
      4          6           0       -1.919124    0.940694    0.000000
      5          6           0       -2.467939   -0.321580    0.000000
      6          6           0       -3.838444   -0.536523    0.000000
      7          6           0       -1.289410   -1.306422    0.000000
      8          6           0       -1.255985   -2.654710    0.000000
      9          6           0        0.019785   -3.282366    0.000000
     10          6           0        1.213365   -2.499737    0.000000
     11          6           0        1.113298   -1.096637    0.000000
     12          6           0       -0.135285   -0.556320    0.000000
     13          6           0       -0.387842    0.757345    0.000000
     14          6           0        0.607506    1.670808    0.000000
     15          6           0        1.943643    1.189505    0.000000
     16          6           0        3.016718    2.089739    0.000000
     17          6           0        4.335063    1.609247    0.000000
     18          6           0        4.584958    0.227772    0.000000
     19          6           0        3.517738   -0.681637    0.000000
     20          6           0        2.200669   -0.208035    0.000000
     21          1           0       -5.725699    0.502112    0.000000
     22          1           0       -4.704147    2.771782    0.000000
     23          1           0       -2.217752    3.028360    0.000000
     24          1           0       -4.251312   -1.523660    0.000000
     25          1           0       -2.157289   -3.231382    0.000000
     26          1           0        0.085634   -4.350338    0.000000
     27          1           0        2.172325   -2.974391    0.000000
     28          1           0        0.396621    2.719820    0.000000
     29          1           0        2.831198    3.143534    0.000000
     30          1           0        5.153358    2.298662    0.000000
     31          1           0        5.592610   -0.132141    0.000000
     32          1           0        3.709582   -1.734298    0.000000
 ---------------------------------------------------------------------
                    Distance matrix (angstroms):
                    1          2          3          4          5
     1  C    0.000000
     2  C    1.423038   0.000000
     3  C    2.463452   1.414739   0.000000
     4  C    2.761927   2.362768   1.346114   0.000000
     5  C    2.382136   2.747005   2.388433   1.376421   0.000000
     6  C    1.409852   2.453705   2.846057   2.421974   1.387258
     7  C    3.877443   4.252272   3.636751   2.333682   1.535853
     8  C    4.716215   5.361785   4.920422   3.656048   2.629131
     9  C    6.086757   6.609840   5.979530   4.646892   3.867173
    10  C    6.646001   6.883565   5.987637   4.652854   4.277425
    11  C    6.020800   5.995095   4.925703   3.653259   3.664147
    12  C    4.673213   4.646450   3.641167   2.328763   2.344436
    13  C    4.275750   3.862654   2.626406   1.542219   2.343263
    14  C    5.374538   4.689248   3.299722   2.630005   3.664420
    15  C    6.630149   6.061952   4.694129   3.870771   4.663199
    16  C    7.819299   7.094962   5.686184   5.067824   5.991321
    17  C    9.051555   8.416140   7.018824   6.289818   7.071699
    18  C    9.253795   8.821850   7.481738   6.543038   7.074259
    19  C    8.279869   8.022270   6.766676   5.673748   5.996496
    20  C    6.910083   6.622878   5.371577   4.276947   4.669989
    21  H    1.070000   2.166091   3.429715   3.831757   3.360278
    22  H    2.163710   1.070000   2.156218   3.333052   3.817003
    23  H    3.438775   2.170941   1.070000   2.108916   3.359270
    24  H    2.171166   3.433815   3.915770   3.392955   2.150678
    25  H    4.584024   5.483630   5.314454   4.178868   2.926337
    26  H    6.864447   7.513696   6.975764   5.658098   4.769866
    27  H    7.715663   7.928099   6.983589   5.662848   5.345040
    28  H    5.480621   4.545976   3.136544   2.920268   4.178016
    29  H    7.909452   7.017101   5.606603   5.236226   6.331498
    30  H    9.958830   9.237578   7.826428   7.201672   8.059146
    31  H   10.280326   9.880886   8.547438   7.587959   8.062775
    32  H    8.692259   8.594325   7.421272   6.232007   6.336998
                    6          7          8          9         10
     6  C    0.000000
     7  C    2.662765   0.000000
     8  C    3.340031   1.348702   0.000000
     9  C    4.735566   2.370305   1.421809   0.000000
    10  C    5.419869   2.772703   2.474208   1.427284   0.000000
    11  C    4.983320   2.411849   2.835682   2.444010   1.406664
    12  C    3.703212   1.376465   2.378909   2.730452   2.365528
    13  C    3.685206   2.252101   3.520766   4.060225   3.629387
    14  C    4.963746   3.530182   4.709852   4.987920   4.214322
    15  C    6.034210   4.084394   5.001560   4.868147   3.760826
    16  C    7.341015   5.484218   6.384809   6.151514   4.931063
    17  C    8.450475   6.335283   7.031440   6.522998   5.160305
    18  C    8.458005   6.071404   6.513472   5.758634   4.336698
    19  C    7.357612   4.847579   5.165408   4.358837   2.935238
    20  C    6.048040   3.658839   4.234935   3.769319   2.495329
    21  H    2.154181   4.790768   5.472099   6.879888   7.560536
    22  H    3.419697   5.319039   6.429357   7.679078   7.925015
    23  H    3.915997   4.433075   5.763877   6.695658   6.506337
    24  H    1.070000   2.969858   3.201759   4.619017   5.551164
    25  H    3.176247   2.111560   1.070000   2.177671   3.449147
    26  H    5.472071   3.340085   2.162196   1.070000   2.167141
    27  H    6.486334   3.842620   3.443182   2.174459   1.070000
    28  H    5.342242   4.365012   5.622871   6.014004   5.283072
    29  H    7.617542   6.064777   7.093990   7.014002   5.870595
    30  H    9.428190   7.382810   8.100344   7.582970   6.208718
    31  H    9.439719   6.981485   7.298398   6.401585   4.978283
    32  H    7.642471   5.017270   5.050150   4.001389   2.610938
                   11         12         13         14         15
    11  C    0.000000
    12  C    1.360478   0.000000
    13  C    2.385513   1.337723   0.000000
    14  C    2.813285   2.347730   1.350975   0.000000
    15  C    2.432265   2.714746   2.371199   1.420180   0.000000
    16  C    3.711603   4.115429   3.655996   2.445364   1.400683
    17  C    4.207324   4.967262   4.799122   3.728065   2.427977
    18  C    3.715707   4.784923   5.000919   4.231132   2.810957
    19  C    2.439990   3.655171   4.162238   3.742117   2.445189
    20  C    1.404275   2.361776   2.762671   2.463376   1.420979
    21  H    7.023381   5.689728   5.343955   6.440135   7.700085
    22  H    6.986224   5.652501   4.763238   5.424555   6.833499
    23  H    5.302028   4.145673   2.916518   3.134491   4.549571
    24  H    5.381579   4.228171   4.486578   5.814872   6.763041
    25  H    3.905621   3.353275   4.363586   5.628104   6.030081
    26  H    3.412135   3.800444   5.129581   6.043719   5.843120
    27  H    2.155806   3.342473   4.525518   4.901686   4.170171
    28  H    3.883165   3.319039   2.113455   1.070000   2.176038
    29  H    4.574956   4.742251   4.007009   2.667157   2.146156
    30  H    5.277323   6.010047   5.751570   4.589005   3.395954
    31  H    4.581974   5.743580   6.046239   5.301121   3.880942
    32  H    2.673444   4.021273   4.795537   4.606259   3.415724
                   16         17         18         19         20
    16  C    0.000000
    17  C    1.403177   0.000000
    18  C    2.434399   1.403895   0.000000
    19  C    2.816300   2.432318   1.402136   0.000000
    20  C    2.438382   2.803239   2.423791   1.399631   0.000000
    21  H    8.885404  10.121495  10.314306   9.318926   7.958116
    22  H    7.750931   9.113660   9.631171   8.917706   7.520359
    23  H    5.317959   6.704720   7.356641   6.830807   5.476925
    24  H    8.116706   9.140073   9.008173   7.814547   6.584750
    25  H    7.421906   8.098291   7.577839   6.221505   5.304001
    26  H    7.075723   7.319447   6.418957   5.023814   4.651026
    27  H    5.134045   5.068252   4.009320   2.658356   2.766501
    28  H    2.694793   4.092028   4.873651   4.616414   3.439030
    29  H    1.070000   2.148405   3.402549   3.886292   3.410364
    30  H    2.146830   1.070000   2.147478   3.399623   3.873229
    31  H    3.401760   2.147990   1.070000   2.146402   3.392790
    32  H    3.886300   3.401547   2.148488   1.070000   2.146228
                   21         22         23         24         25
    21  H    0.000000
    22  H    2.488969   0.000000
    23  H    4.322917   2.499598   0.000000
    24  H    2.505508   4.319246   4.985605   0.000000
    25  H    5.164545   6.521078   6.260034   2.702082   0.000000
    26  H    7.570856   8.582924   7.729862   5.176795   2.506544
    27  H    8.629302   8.961270   7.436787   6.585418   4.337234
    28  H    6.511607   5.101033   2.632517   6.293680   6.476053
    29  H    8.955311   7.544509   5.050264   8.482019   8.094724
    30  H   11.026399   9.868852   7.407141  10.151747   9.166621
    31  H   11.336066  10.698410   8.425588   9.941787   8.346630
    32  H    9.696703   9.544401   7.603697   7.963681   6.054869
                   26         27         28         29         30
    26  H    0.000000
    27  H    2.499502   0.000000
    28  H    7.076994   5.964660   0.000000
    29  H    7.980992   6.153302   2.471173   0.000000
    30  H    8.360085   6.057363   4.775345   2.471080   0.000000
    31  H    6.936857   4.447105   5.927224   4.284325   2.470171
    32  H    4.469526   1.975093   5.551115   4.956289   4.283603
                   31         32
    31  H    0.000000
    32  H    2.472388   0.000000
 Stoichiometry    C20H12
 Framework group  CS[SG(C20H12)]
 Deg. of freedom    61
 Full point group                 CS      NOp   2
 Largest Abelian subgroup         CS      NOp   2
 Largest concise Abelian subgroup C1      NOp   1
                         Standard orientation:                         
 ---------------------------------------------------------------------
 Center     Atomic      Atomic             Coordinates (Angstroms)
 Number     Number       Type             X           Y           Z
 ---------------------------------------------------------------------
      1          6           0        4.672796    0.510084    0.000000
      2          6           0        4.410730   -0.888615    0.000000
      3          6           0        3.080157   -1.369304    0.000000
      4          6           0        2.087057   -0.460583    0.000000
      5          6           0        2.322066    0.895626    0.000000
      6          6           0        3.602972    1.428321    0.000000
      7          6           0        0.944200    1.574103    0.000000
      8          6           0        0.593133    2.876313    0.000000
      9          6           0       -0.794820    3.184742    0.000000
     10          6           0       -1.769671    2.142242    0.000000
     11          6           0       -1.340898    0.802520    0.000000
     12          6           0        0.000000    0.572533    0.000000
     13          6           0        0.555814   -0.644255    0.000000
     14          6           0       -0.195506   -1.767043    0.000000
     15          6           0       -1.607533   -1.615087    0.000000
     16          6           0       -2.437504   -2.743387    0.000000
     17          6           0       -3.832052   -2.588015    0.000000
     18          6           0       -4.401302   -1.304708    0.000000
     19          6           0       -3.579188   -0.168876    0.000000
     20          6           0       -2.187508   -0.317855    0.000000
     21          1           0        5.682204    0.865040    0.000000
     22          1           0        5.225884   -1.581742    0.000000
     23          1           0        2.870526   -2.418568    0.000000
     24          1           0        3.770897    2.485062    0.000000
     25          1           0        1.332652    3.649625    0.000000
     26          1           0       -1.111156    4.206912    0.000000
     27          1           0       -2.813632    2.376862    0.000000
     28          1           0        0.257280   -2.736519    0.000000
     29          1           0       -2.008235   -3.723504    0.000000
     30          1           0       -4.464273   -3.451263    0.000000
     31          1           0       -5.465464   -1.193087    0.000000
     32          1           0       -4.014335    0.808645    0.000000
 ---------------------------------------------------------------------
 Rotational constants (GHZ):           0.7508426           0.2625606           0.1945343
 Standard basis: def2SVPP (5D, 7F)
 There are   244 symmetry adapted cartesian basis functions of A'  symmetry.
 There are    80 symmetry adapted cartesian basis functions of A"  symmetry.
 There are   224 symmetry adapted basis functions of A'  symmetry.
 There are    80 symmetry adapted basis functions of A"  symmetry.
   304 basis functions,   548 primitive gaussians,   324 cartesian basis functions
    66 alpha electrons       66 beta electrons
       nuclear repulsion energy      1353.2590574476 Hartrees.
 NAtoms=   32 NActive=   32 NUniq=   32 SFac= 1.00D+00 NAtFMM=   60 NAOKFM=F Big=F
 Integral buffers will be    131072 words long.
 Raffenetti 2 integral format.
 Two-electron integral symmetry is turned on.
 Nuclear repulsion after empirical dispersion term =     1353.1775087612 Hartrees.
 One-electron integrals computed using PRISM.
   2 Symmetry operations used in ECPInt.
 ECPInt:  NShTT=   10440 NPrTT=   41912 LenC2=    9783 LenP2D=   27325.
 LDataN:  DoStor=T MaxTD1= 4 Len=   56
 NBasis=   304 RedAO= T EigKep=  1.55D-04  NBF=   224    80
 NBsUse=   304 1.00D-06 EigRej= -1.00D+00 NBFU=   224    80
 ExpMin= 1.22D-01 ExpMax= 1.24D+03 ExpMxC= 1.86D+02 IAcc=3 IRadAn=         5 AccDes= 0.00D+00
 Harris functional with IExCor=  402 and IRadAn=       5 diagonalized for initial guess.
 HarFok:  IExCor=  402 AccDes= 0.00D+00 IRadAn=         5 IDoV= 1 UseB2=F ITyADJ=14
 ICtDFT=  3500011 ScaDFX=  1.000000  1.000000  1.000000  1.000000
 FoFCou: FMM=F IPFlag=           0 FMFlag=      100000 FMFlg1=           0
         NFxFlg=           0 DoJE=T BraDBF=F KetDBF=T FulRan=T
         wScrn=  0.000000 ICntrl=       500 IOpCl=  0 I1Cent=   200000004 NGrid=           0
         NMat0=    1 NMatS0=      1 NMatT0=    0 NMatD0=    1 NMtDS0=    0 NMtDT0=    0
 Petite list used in FoFCou.
 Initial guess orbital symmetries:
       Occupied  (A') (A') (A') (A') (A') (A') (A') (A') (A') (A')
                 (A') (A') (A') (A') (A') (A') (A') (A') (A') (A')
                 (A') (A') (A') (A') (A') (A') (A') (A') (A') (A')
                 (A') (A') (A') (A') (A') (A') (A') (A') (A') (A')
                 (A') (A') (A') (A') (A') (A') (A') (A') (A') (A")
                 (A') (A') (A') (A") (A') (A') (A') (A") (A') (A")
                 (A") (A") (A") (A") (A") (A")
       Virtual   (A") (A") (A") (A") (A") (A") (A") (A') (A") (A')
                 (A') (A') (A') (A") (A') (A') (A') (A') (A") (A')
                 (A') (A') (A') (A') (A') (A') (A') (A') (A') (A')
                 (A') (A') (A') (A') (A') (A') (A') (A') (A') (A')
                 (A') (A') (A') (A') (A') (A') (A') (A') (A") (A')
                 (A') (A') (A") (A') (A') (A") (A') (A') (A') (A")
                 (A') (A') (A') (A") (A') (A') (A") (A") (A') (A")
                 (A') (A") (A") (A") (A") (A") (A') (A') (A') (A')
                 (A") (A') (A') (A") (A') (A') (A') (A') (A') (A')
                 (A') (A") (A') (A') (A') (A") (A') (A') (A") (A')
                 (A') (A") (A') (A') (A') (A') (A') (A") (A') (A')
                 (A') (A') (A') (A') (A') (A') (A') (A') (A') (A')
                 (A') (A') (A") (A') (A') (A") (A") (A') (A") (A')
                 (A') (A") (A') (A") (A') (A") (A') (A") (A') (A')
                 (A') (A") (A") (A") (A") (A") (A") (A") (A") (A')
                 (A') (A') (A') (A') (A') (A') (A') (A') (A") (A')
                 (A") (A') (A') (A") (A') (A') (A') (A') (A") (A')
                 (A') (A') (A') (A') (A') (A') (A') (A") (A') (A")
                 (A') (A') (A') (A") (A') (A") (A') (A') (A') (A")
                 (A') (A") (A') (A") (A') (A") (A") (A") (A") (A')
                 (A") (A") (A") (A') (A") (A') (A') (A') (A') (A')
                 (A") (A') (A') (A') (A") (A') (A') (A") (A') (A')
                 (A') (A") (A') (A') (A") (A') (A') (A') (A') (A')
                 (A') (A') (A') (A') (A') (A') (A') (A')
 The electronic state of the initial guess is 1-A'.
 Requested convergence on RMS density matrix=1.00D-08 within 128 cycles.
 Requested convergence on MAX density matrix=1.00D-06.
 Requested convergence on             energy=1.00D-06.
 No special actions if energy rises.
 Integral accuracy reduced to 1.0D-05 until final iterations.
 Initial convergence to 1.0D-05 achieved.  Increase integral accuracy.
 SCF Done:  E(RB3LYP) =  -768.872520550     A.U. after   16 cycles
            NFock= 16  Conv=0.42D-08     -V/T= 2.0096

 **********************************************************************

            Population analysis using the SCF Density.

 **********************************************************************

 Orbital symmetries:
       Occupied  (A') (A') (A') (A') (A') (A') (A') (A') (A') (A')
                 (A') (A') (A') (A') (A') (A') (A') (A') (A') (A')
                 (A') (A') (A') (A') (A') (A') (A') (A') (A') (A')
                 (A') (A') (A') (A') (A') (A') (A') (A') (A') (A')
                 (A') (A') (A') (A') (A') (A') (A") (A') (A') (A')
                 (A') (A") (A') (A') (A") (A') (A') (A') (A") (A')
                 (A") (A") (A") (A") (A") (A")
       Virtual   (A") (A") (A") (A") (A") (A") (A') (A') (A') (A")
                 (A') (A') (A') (A') (A') (A') (A") (A') (A') (A")
                 (A') (A') (A') (A") (A') (A') (A') (A') (A') (A')
                 (A') (A') (A') (A') (A') (A') (A') (A') (A') (A')
                 (A') (A') (A') (A') (A') (A') (A') (A') (A") (A')
                 (A') (A') (A") (A") (A') (A') (A") (A') (A') (A')
                 (A') (A") (A') (A') (A") (A") (A') (A') (A") (A")
                 (A") (A') (A') (A") (A") (A") (A") (A') (A') (A")
                 (A') (A') (A') (A') (A') (A") (A') (A') (A') (A")
                 (A') (A') (A') (A') (A") (A') (A') (A') (A") (A')
                 (A') (A') (A') (A') (A') (A") (A') (A') (A') (A')
                 (A') (A') (A') (A') (A') (A') (A') (A') (A') (A')
                 (A') (A') (A') (A') (A") (A') (A') (A") (A") (A')
                 (A") (A') (A') (A") (A") (A') (A") (A') (A') (A")
                 (A') (A") (A") (A') (A") (A") (A") (A") (A") (A")
                 (A') (A') (A') (A') (A') (A') (A') (A") (A") (A')
                 (A') (A') (A') (A") (A') (A') (A') (A') (A") (A')
                 (A') (A') (A') (A') (A') (A') (A") (A') (A") (A')
                 (A') (A') (A') (A") (A") (A') (A') (A') (A") (A')
                 (A") (A') (A') (A") (A") (A') (A") (A") (A") (A')
                 (A") (A") (A") (A") (A') (A') (A') (A') (A') (A")
                 (A') (A') (A') (A") (A') (A') (A') (A") (A') (A')
                 (A") (A') (A') (A') (A") (A') (A') (A') (A') (A')
                 (A') (A') (A') (A') (A') (A') (A') (A')
 The electronic state is 1-A'.
 Alpha  occ. eigenvalues --  -10.19802 -10.19549 -10.19533 -10.19215 -10.19131
 Alpha  occ. eigenvalues --  -10.19111 -10.19076 -10.19042 -10.19025 -10.19021
 Alpha  occ. eigenvalues --  -10.18983 -10.18981 -10.18968 -10.18964 -10.18907
 Alpha  occ. eigenvalues --  -10.18810 -10.18766 -10.18697 -10.18649 -10.16869
 Alpha  occ. eigenvalues --   -0.90938  -0.86683  -0.84322  -0.81536  -0.79181
 Alpha  occ. eigenvalues --   -0.76842  -0.75111  -0.72611  -0.71750  -0.71138
 Alpha  occ. eigenvalues --   -0.65249  -0.63544  -0.61430  -0.60747  -0.58644
 Alpha  occ. eigenvalues --   -0.57244  -0.54070  -0.53189  -0.51782  -0.49417
 Alpha  occ. eigenvalues --   -0.48252  -0.47529  -0.45724  -0.44935  -0.44107
 Alpha  occ. eigenvalues --   -0.43713  -0.43097  -0.43093  -0.42366  -0.41403
 Alpha  occ. eigenvalues --   -0.40736  -0.38726  -0.37858  -0.37702  -0.36065
 Alpha  occ. eigenvalues --   -0.35619  -0.34916  -0.33820  -0.32863  -0.32772
 Alpha  occ. eigenvalues --   -0.30274  -0.27888  -0.26800  -0.23760  -0.22730
 Alpha  occ. eigenvalues --   -0.21668
 Alpha virt. eigenvalues --   -0.06457  -0.04681  -0.01294  -0.00114   0.01058
 Alpha virt. eigenvalues --    0.04667   0.06600   0.07017   0.07427   0.07727
 Alpha virt. eigenvalues --    0.08710   0.09262   0.11468   0.11825   0.12917
 Alpha virt. eigenvalues --    0.13883   0.14176   0.16191   0.17956   0.18415
 Alpha virt. eigenvalues --    0.20678   0.21973   0.23468   0.23781   0.24429
 Alpha virt. eigenvalues --    0.24862   0.25812   0.26339   0.27510   0.28293
 Alpha virt. eigenvalues --    0.28571   0.29104   0.30651   0.30894   0.31450
 Alpha virt. eigenvalues --    0.32543   0.33663   0.33993   0.34438   0.35406
 Alpha virt. eigenvalues --    0.37264   0.37886   0.38937   0.39475   0.40353
 Alpha virt. eigenvalues --    0.41087   0.42901   0.43061   0.44448   0.44946
 Alpha virt. eigenvalues --    0.45240   0.46387   0.46587   0.47635   0.47960
 Alpha virt. eigenvalues --    0.48152   0.49273   0.49358   0.49817   0.50267
 Alpha virt. eigenvalues --    0.50752   0.51047   0.51483   0.52404   0.53091
 Alpha virt. eigenvalues --    0.53803   0.54484   0.54877   0.55796   0.57380
 Alpha virt. eigenvalues --    0.57625   0.58082   0.58190   0.60279   0.62414
 Alpha virt. eigenvalues --    0.62872   0.65275   0.66399   0.66459   0.67027
 Alpha virt. eigenvalues --    0.67795   0.68449   0.69070   0.69339   0.69979
 Alpha virt. eigenvalues --    0.70943   0.71372   0.71758   0.71851   0.72519
 Alpha virt. eigenvalues --    0.72548   0.73157   0.73764   0.74596   0.75591
 Alpha virt. eigenvalues --    0.75618   0.76275   0.77148   0.77732   0.78314
 Alpha virt. eigenvalues --    0.78711   0.79086   0.81237   0.83004   0.83592
 Alpha virt. eigenvalues --    0.83872   0.85136   0.86027   0.86541   0.89067
 Alpha virt. eigenvalues --    0.91111   0.92419   0.95865   0.96012   0.98526
 Alpha virt. eigenvalues --    0.99960   1.02474   1.08219   1.10786   1.12134
 Alpha virt. eigenvalues --    1.14219   1.14848   1.17571   1.19160   1.20099
 Alpha virt. eigenvalues --    1.22552   1.23917   1.24121   1.25043   1.26385
 Alpha virt. eigenvalues --    1.26747   1.28782   1.30638   1.33087   1.33990
 Alpha virt. eigenvalues --    1.35347   1.35866   1.36166   1.38414   1.40270
 Alpha virt. eigenvalues --    1.40790   1.44973   1.45400   1.46242   1.46314
 Alpha virt. eigenvalues --    1.46689   1.47204   1.47883   1.48272   1.48748
 Alpha virt. eigenvalues --    1.50133   1.51241   1.52897   1.63459   1.67575
 Alpha virt. eigenvalues --    1.70288   1.73943   1.74002   1.74691   1.75250
 Alpha virt. eigenvalues --    1.75650   1.77089   1.78138   1.78394   1.80525
 Alpha virt. eigenvalues --    1.81767   1.85300   1.86561   1.86725   1.87802
 Alpha virt. eigenvalues --    1.89249   1.90703   1.91693   1.93326   1.96677
 Alpha virt. eigenvalues --    1.99633   2.01973   2.02775   2.05660   2.06092
 Alpha virt. eigenvalues --    2.08386   2.08881   2.10095   2.11063   2.13459
 Alpha virt. eigenvalues --    2.13849   2.15220   2.15891   2.18297   2.18589
 Alpha virt. eigenvalues --    2.19979   2.20572   2.21964   2.21984   2.23623
 Alpha virt. eigenvalues --    2.24090   2.25930   2.27242   2.29127   2.31047
 Alpha virt. eigenvalues --    2.31242   2.33041   2.38527   2.40576   2.41297
 Alpha virt. eigenvalues --    2.45550   2.46702   2.48033   2.48570   2.50963
 Alpha virt. eigenvalues --    2.52908   2.57178   2.60747   2.60775   2.61415
 Alpha virt. eigenvalues --    2.64437   2.65430   2.65797   2.67546   2.68838
 Alpha virt. eigenvalues --    2.70555   2.71823   2.74548   2.75750   2.76744
 Alpha virt. eigenvalues --    2.79268   2.80197   2.83652   2.86960   2.88551
 Alpha virt. eigenvalues --    2.94799   3.07184   3.14332   3.26193   3.31932
 Alpha virt. eigenvalues --    3.39932   3.49875   3.64518
          Condensed to atoms (all electrons):
               1          2          3          4          5          6
     1  C    5.214652   0.219536   0.146373  -0.207774   0.186967   0.180737
     2  C    0.219536   5.226179   0.166925   0.194925  -0.209629   0.141451
     3  C    0.146373   0.166925   5.522370   0.215860   0.044711  -0.158466
     4  C   -0.207774   0.194925   0.215860   5.648642   0.039281   0.061579
     5  C    0.186967  -0.209629   0.044711   0.039281   5.689333   0.239459
     6  C    0.180737   0.141451  -0.158466   0.061579   0.239459   5.425497
     7  C    0.017514  -0.001044   0.023832  -0.073099   0.201112  -0.129287
     8  C   -0.000075   0.000020  -0.000349   0.021974  -0.162895  -0.019402
     9  C   -0.000023   0.000006  -0.000021  -0.000188   0.019350  -0.000060
    10  C    0.000005  -0.000002   0.000040  -0.000774  -0.002586  -0.000006
    11  C   -0.000006   0.000012  -0.000791   0.029364   0.033631  -0.000420
    12  C   -0.000823  -0.000153   0.024834  -0.047780  -0.083634   0.019611
    13  C   -0.000681   0.018420  -0.143750   0.177612  -0.066804   0.019965
    14  C    0.000049  -0.000176  -0.026697  -0.166413   0.027700  -0.000260
    15  C    0.000006  -0.000036  -0.000137   0.018641  -0.000474  -0.000022
    16  C   -0.000000   0.000000  -0.000025  -0.000831   0.000007  -0.000000
    17  C   -0.000000   0.000000   0.000000   0.000009   0.000000   0.000000
    18  C    0.000000   0.000000  -0.000000  -0.000005  -0.000000   0.000000
    19  C    0.000000  -0.000000   0.000000   0.000130   0.000012  -0.000000
    20  C   -0.000002   0.000005   0.000039  -0.000960  -0.000576   0.000032
    21  H    0.432856  -0.076930   0.014241  -0.001609   0.014937  -0.077849
    22  H   -0.077532   0.431201  -0.077135   0.015755  -0.001429   0.014238
    23  H    0.014671  -0.095094   0.434876  -0.066486   0.027099  -0.003175
    24  H   -0.093388   0.014758  -0.003293   0.024890  -0.067861   0.438744
    25  H    0.000179  -0.000026   0.000056  -0.001057  -0.027002   0.005633
    26  H   -0.000000  -0.000000  -0.000000   0.000015  -0.000473  -0.000002
    27  H    0.000000   0.000000  -0.000000   0.000007   0.000038  -0.000000
    28  H   -0.000024   0.000173   0.006937  -0.026299  -0.001100   0.000046
    29  H    0.000000  -0.000000   0.000002  -0.000025  -0.000000  -0.000000
    30  H    0.000000  -0.000000  -0.000000  -0.000000   0.000000  -0.000000
    31  H   -0.000000   0.000000   0.000000   0.000000   0.000000  -0.000000
    32  H   -0.000000   0.000000   0.000000   0.000003   0.000000   0.000000
               7          8          9         10         11         12
     1  C    0.017514  -0.000075  -0.000023   0.000005  -0.000006  -0.000823
     2  C   -0.001044   0.000020   0.000006  -0.000002   0.000012  -0.000153
     3  C    0.023832  -0.000349  -0.000021   0.000040  -0.000791   0.024834
     4  C   -0.073099   0.021974  -0.000188  -0.000774   0.029364  -0.047780
     5  C    0.201112  -0.162895   0.019350  -0.002586   0.033631  -0.083634
     6  C   -0.129287  -0.019402  -0.000060  -0.000006  -0.000420   0.019611
     7  C    5.727848   0.191969   0.208010  -0.220193   0.014517   0.009425
     8  C    0.191969   5.599204   0.125568   0.160845  -0.188745   0.065538
     9  C    0.208010   0.125568   5.245822   0.195700   0.155108  -0.214486
    10  C   -0.220193   0.160845   0.195700   5.556153   0.219217   0.047509
    11  C    0.014517  -0.188745   0.155108   0.219217   5.806500   0.002733
    12  C    0.009425   0.065538  -0.214486   0.047509   0.002733   6.248023
    13  C   -0.119285   0.044618  -0.007372   0.046634  -0.042693  -0.070010
    14  C    0.032190  -0.001930   0.000273  -0.005324  -0.139558   0.051916
    15  C   -0.001359  -0.000110   0.000526   0.025093  -0.000506  -0.216347
    16  C    0.000203   0.000003  -0.000005  -0.000417   0.029990  -0.001453
    17  C   -0.000006  -0.000001   0.000008   0.000044  -0.003928  -0.000025
    18  C    0.000017   0.000009  -0.000126   0.000423   0.029454   0.000322
    19  C   -0.001525   0.000171  -0.000245  -0.025422  -0.141996   0.030103
    20  C    0.045873  -0.007660   0.031693  -0.193999   0.123896   0.017092
    21  H   -0.000459  -0.000003  -0.000000  -0.000000  -0.000000   0.000016
    22  H    0.000035  -0.000000  -0.000000   0.000000  -0.000000   0.000021
    23  H   -0.000619   0.000020  -0.000001   0.000002   0.000037  -0.001875
    24  H   -0.027348   0.005446   0.000223  -0.000027   0.000052  -0.001033
    25  H   -0.066063   0.433625  -0.094700   0.014044  -0.002177   0.026958
    26  H    0.015495  -0.080076   0.430682  -0.074336   0.015449  -0.001141
    27  H   -0.002403   0.013826  -0.087663   0.422012  -0.043418   0.025594
    28  H   -0.000672   0.000020   0.000000   0.000052  -0.002875   0.029099
    29  H    0.000001   0.000000  -0.000000   0.000011  -0.000299  -0.000097
    30  H   -0.000000   0.000000  -0.000000  -0.000000   0.000068  -0.000003
    31  H   -0.000000   0.000000  -0.000001  -0.000006  -0.000674   0.000015
    32  H    0.000050  -0.000110   0.001872   0.012327  -0.052362  -0.001716
              13         14         15         16         17         18
     1  C   -0.000681   0.000049   0.000006  -0.000000  -0.000000   0.000000
     2  C    0.018420  -0.000176  -0.000036   0.000000   0.000000   0.000000
     3  C   -0.143750  -0.026697  -0.000137  -0.000025   0.000000  -0.000000
     4  C    0.177612  -0.166413   0.018641  -0.000831   0.000009  -0.000005
     5  C   -0.066804   0.027700  -0.000474   0.000007   0.000000  -0.000000
     6  C    0.019965  -0.000260  -0.000022  -0.000000   0.000000   0.000000
     7  C   -0.119285   0.032190  -0.001359   0.000203  -0.000006   0.000017
     8  C    0.044618  -0.001930  -0.000110   0.000003  -0.000001   0.000009
     9  C   -0.007372   0.000273   0.000526  -0.000005   0.000008  -0.000126
    10  C    0.046634  -0.005324   0.025093  -0.000417   0.000044   0.000423
    11  C   -0.042693  -0.139558  -0.000506   0.029990  -0.003928   0.029454
    12  C   -0.070010   0.051916  -0.216347  -0.001453  -0.000025   0.000322
    13  C    5.887074   0.173543   0.203796   0.018345  -0.001716   0.000192
    14  C    0.173543   5.890236   0.152292  -0.158554   0.022169  -0.002655
    15  C    0.203796   0.152292   5.533757   0.207654   0.154574  -0.180110
    16  C    0.018345  -0.158554   0.207654   5.460159   0.187383   0.157827
    17  C   -0.001716   0.022169   0.154574   0.187383   5.233974   0.168973
    18  C    0.000192  -0.002655  -0.180110   0.157827   0.168973   5.238854
    19  C   -0.001982   0.022483   0.012461  -0.173049   0.148278   0.188365
    20  C   -0.203487   0.031953   0.036858   0.065683  -0.167655   0.142432
    21  H    0.000037  -0.000000  -0.000000   0.000000   0.000000   0.000000
    22  H   -0.000527  -0.000006  -0.000000  -0.000000   0.000000  -0.000000
    23  H   -0.031569   0.007393   0.000447  -0.000013   0.000000  -0.000000
    24  H   -0.000621   0.000015  -0.000001   0.000000  -0.000000   0.000000
    25  H   -0.000688   0.000014   0.000003  -0.000000   0.000000  -0.000000
    26  H    0.000077  -0.000002   0.000009  -0.000000   0.000000  -0.000001
    27  H   -0.000351   0.000039  -0.002061   0.000056  -0.000079   0.001603
    28  H   -0.072590   0.442731  -0.100819  -0.016809   0.000705  -0.000054
    29  H    0.001568  -0.024910  -0.079321   0.443992  -0.087256   0.015521
    30  H    0.000014  -0.000594   0.016384  -0.081276   0.439396  -0.084584
    31  H   -0.000004   0.000053  -0.001193   0.015058  -0.084308   0.437075
    32  H   -0.000202  -0.000130   0.021126  -0.002653   0.015322  -0.089741
              19         20         21         22         23         24
     1  C    0.000000  -0.000002   0.432856  -0.077532   0.014671  -0.093388
     2  C   -0.000000   0.000005  -0.076930   0.431201  -0.095094   0.014758
     3  C    0.000000   0.000039   0.014241  -0.077135   0.434876  -0.003293
     4  C    0.000130  -0.000960  -0.001609   0.015755  -0.066486   0.024890
     5  C    0.000012  -0.000576   0.014937  -0.001429   0.027099  -0.067861
     6  C   -0.000000   0.000032  -0.077849   0.014238  -0.003175   0.438744
     7  C   -0.001525   0.045873  -0.000459   0.000035  -0.000619  -0.027348
     8  C    0.000171  -0.007660  -0.000003  -0.000000   0.000020   0.005446
     9  C   -0.000245   0.031693  -0.000000  -0.000000  -0.000001   0.000223
    10  C   -0.025422  -0.193999  -0.000000   0.000000   0.000002  -0.000027
    11  C   -0.141996   0.123896  -0.000000  -0.000000   0.000037   0.000052
    12  C    0.030103   0.017092   0.000016   0.000021  -0.001875  -0.001033
    13  C   -0.001982  -0.203487   0.000037  -0.000527  -0.031569  -0.000621
    14  C    0.022483   0.031953  -0.000000  -0.000006   0.007393   0.000015
    15  C    0.012461   0.036858  -0.000000  -0.000000   0.000447  -0.000001
    16  C   -0.173049   0.065683   0.000000  -0.000000  -0.000013   0.000000
    17  C    0.148278  -0.167655   0.000000   0.000000   0.000000  -0.000000
    18  C    0.188365   0.142432   0.000000  -0.000000  -0.000000   0.000000
    19  C    5.488175   0.231334  -0.000000   0.000000   0.000000  -0.000000
    20  C    0.231334   5.792533   0.000000  -0.000000  -0.000019   0.000002
    21  H   -0.000000   0.000000   0.670506  -0.011983  -0.000218  -0.010915
    22  H    0.000000  -0.000000  -0.011983   0.672442  -0.011009  -0.000232
    23  H    0.000000  -0.000019  -0.000218  -0.011009   0.702489   0.000025
    24  H   -0.000000   0.000002  -0.010915  -0.000232   0.000025   0.695261
    25  H   -0.000000   0.000046   0.000005  -0.000000   0.000001   0.000584
    26  H    0.000005  -0.000483   0.000000  -0.000000   0.000000   0.000004
    27  H    0.014377  -0.048655  -0.000000  -0.000000  -0.000000  -0.000000
    28  H   -0.000174   0.016004  -0.000000   0.000008   0.001034   0.000001
    29  H   -0.002183   0.018962  -0.000000   0.000000   0.000003  -0.000000
    30  H    0.015632  -0.001445  -0.000000   0.000000   0.000000   0.000000
    31  H   -0.078565   0.016327  -0.000000  -0.000000  -0.000000  -0.000000
    32  H    0.431306  -0.043957  -0.000000   0.000000  -0.000000   0.000000
              25         26         27         28         29         30
     1  C    0.000179  -0.000000   0.000000  -0.000024   0.000000   0.000000
     2  C   -0.000026  -0.000000   0.000000   0.000173  -0.000000  -0.000000
     3  C    0.000056  -0.000000  -0.000000   0.006937   0.000002  -0.000000
     4  C   -0.001057   0.000015   0.000007  -0.026299  -0.000025  -0.000000
     5  C   -0.027002  -0.000473   0.000038  -0.001100  -0.000000   0.000000
     6  C    0.005633  -0.000002  -0.000000   0.000046  -0.000000  -0.000000
     7  C   -0.066063   0.015495  -0.002403  -0.000672   0.000001  -0.000000
     8  C    0.433625  -0.080076   0.013826   0.000020   0.000000   0.000000
     9  C   -0.094700   0.430682  -0.087663   0.000000  -0.000000  -0.000000
    10  C    0.014044  -0.074336   0.422012   0.000052   0.000011  -0.000000
    11  C   -0.002177   0.015449  -0.043418  -0.002875  -0.000299   0.000068
    12  C    0.026958  -0.001141   0.025594   0.029099  -0.000097  -0.000003
    13  C   -0.000688   0.000077  -0.000351  -0.072590   0.001568   0.000014
    14  C    0.000014  -0.000002   0.000039   0.442731  -0.024910  -0.000594
    15  C    0.000003   0.000009  -0.002061  -0.100819  -0.079321   0.016384
    16  C   -0.000000  -0.000000   0.000056  -0.016809   0.443992  -0.081276
    17  C    0.000000   0.000000  -0.000079   0.000705  -0.087256   0.439396
    18  C   -0.000000  -0.000001   0.001603  -0.000054   0.015521  -0.084584
    19  C   -0.000000   0.000005   0.014377  -0.000174  -0.002183   0.015632
    20  C    0.000046  -0.000483  -0.048655   0.016004   0.018962  -0.001445
    21  H    0.000005   0.000000  -0.000000  -0.000000  -0.000000  -0.000000
    22  H   -0.000000  -0.000000  -0.000000   0.000008   0.000000   0.000000
    23  H    0.000001   0.000000  -0.000000   0.001034   0.000003   0.000000
    24  H    0.000584   0.000004  -0.000000   0.000001  -0.000000   0.000000
    25  H    0.698224  -0.010906  -0.000208  -0.000001  -0.000000  -0.000000
    26  H   -0.010906   0.672183  -0.011374   0.000000   0.000000  -0.000000
    27  H   -0.000208  -0.011374   0.687483  -0.000000   0.000001  -0.000000
    28  H   -0.000001   0.000000  -0.000000   0.703499   0.006106  -0.000013
    29  H   -0.000000   0.000000   0.000001   0.006106   0.687012  -0.012349
    30  H   -0.000000  -0.000000  -0.000000  -0.000013  -0.012349   0.676111
    31  H   -0.000000  -0.000000   0.000048  -0.000001  -0.000291  -0.012986
    32  H   -0.000000   0.000043  -0.003182   0.000010   0.000024  -0.000297
              31         32
     1  C   -0.000000  -0.000000
     2  C    0.000000   0.000000
     3  C    0.000000   0.000000
     4  C    0.000000   0.000003
     5  C    0.000000   0.000000
     6  C   -0.000000   0.000000
     7  C   -0.000000   0.000050
     8  C    0.000000  -0.000110
     9  C   -0.000001   0.001872
    10  C   -0.000006   0.012327
    11  C   -0.000674  -0.052362
    12  C    0.000015  -0.001716
    13  C   -0.000004  -0.000202
    14  C    0.000053  -0.000130
    15  C   -0.001193   0.021126
    16  C    0.015058  -0.002653
    17  C   -0.084308   0.015322
    18  C    0.437075  -0.089741
    19  C   -0.078565   0.431306
    20  C    0.016327  -0.043957
    21  H   -0.000000  -0.000000
    22  H   -0.000000   0.000000
    23  H   -0.000000  -0.000000
    24  H   -0.000000   0.000000
    25  H   -0.000000  -0.000000
    26  H   -0.000000   0.000043
    27  H    0.000048  -0.003182
    28  H   -0.000001   0.000010
    29  H   -0.000291   0.000024
    30  H   -0.012986  -0.000297
    31  H    0.678264  -0.012299
    32  H   -0.012299   0.690544
 Mulliken charges:
               1
     1  C   -0.033217
     2  C   -0.030521
     3  C   -0.190431
     4  C    0.144613
     5  C    0.100827
     6  C   -0.158045
     7  C    0.155272
     8  C   -0.201502
     9  C   -0.009950
    10  C   -0.177017
    11  C    0.160423
    12  C    0.041767
    13  C    0.172437
    14  C   -0.327839
    15  C    0.198868
    16  C   -0.151273
    17  C   -0.025861
    18  C   -0.023790
    19  C   -0.157689
    20  C    0.098134
    21  H    0.047369
    22  H    0.046153
    23  H    0.021979
    24  H    0.024713
    25  H    0.023454
    26  H    0.044831
    27  H    0.034310
    28  H    0.015005
    29  H    0.033526
    30  H    0.045942
    31  H    0.043488
    32  H    0.034023
 Sum of Mulliken charges =  -0.00000
 Mulliken charges with hydrogens summed into heavy atoms:
               1
     1  C    0.014152
     2  C    0.015632
     3  C   -0.168451
     4  C    0.144613
     5  C    0.100827
     6  C   -0.133332
     7  C    0.155272
     8  C   -0.178047
     9  C    0.034881
    10  C   -0.142707
    11  C    0.160423
    12  C    0.041767
    13  C    0.172437
    14  C   -0.312834
    15  C    0.198868
    16  C   -0.117747
    17  C    0.020081
    18  C    0.019698
    19  C   -0.123666
    20  C    0.098134
 Electronic spatial extent (au):  <R**2>=           5321.8894
 Charge=             -0.0000 electrons
 Dipole moment (field-independent basis, Debye):
    X=             -0.2994    Y=             -0.0684    Z=              0.0000  Tot=              0.3071
 Quadrupole moment (field-independent basis, Debye-Ang):
   XX=           -100.9084   YY=           -100.3403   ZZ=           -121.3857
   XY=              0.2612   XZ=              0.0000   YZ=              0.0000
 Traceless Quadrupole moment (field-independent basis, Debye-Ang):
   XX=              6.6364   YY=              7.2045   ZZ=            -13.8409
   XY=              0.2612   XZ=              0.0000   YZ=              0.0000
 Octapole moment (field-independent basis, Debye-Ang**2):
  XXX=             -5.2570  YYY=             -0.4038  ZZZ=              0.0000  XYY=              0.8025
  XXY=              0.9176  XXZ=              0.0000  XZZ=             -0.3951  YZZ=              0.0021
  YYZ=              0.0000  XYZ=              0.0000
 Hexadecapole moment (field-independent basis, Debye-Ang**3):
 XXXX=          -4715.7566 YYYY=          -1991.9217 ZZZZ=           -133.6398 XXXY=           -344.7164
 XXXZ=              0.0000 YYYX=           -347.8209 YYYZ=              0.0000 ZZZX=              0.0000
 ZZZY=              0.0000 XXYY=          -1116.8235 XXZZ=           -973.3908 YYZZ=           -421.7268
 XXYZ=              0.0000 YYXZ=              0.0000 ZZXY=           -141.7925
 N-N= 1.353177508761D+03 E-N=-4.485816957088D+03  KE= 7.615917734327D+02
 Symmetry A'   KE= 7.400972031371D+02
 Symmetry A"   KE= 2.149457029563D+01
   2 Symmetry operations used in ECPInt.
 ECPInt:  NShTT=   10440 NPrTT=   41912 LenC2=    9783 LenP2D=   27325.
 LDataN:  DoStor=T MaxTD1= 5 Len=  102
 Calling FoFJK, ICntrl=      2127 FMM=F ISym2X=1 I1Cent= 0 IOpClX= 0 NMat=1 NMatS=1 NMatT=0.
 ***** Axes restored to original set *****
 -------------------------------------------------------------------
 Center     Atomic                   Forces (Hartrees/Bohr)
 Number     Number              X              Y              Z
 -------------------------------------------------------------------
      1        6           0.027030403    0.012384879   -0.000000000
      2        6           0.008441961   -0.025596566   -0.000000000
      3        6          -0.042012409    0.017001858   -0.000000000
      4        6           0.067490558   -0.007371963   -0.000000000
      5        6           0.016208195   -0.052875817   -0.000000000
      6        6           0.000914509    0.024568191   -0.000000000
      7        6          -0.063307399    0.019785458   -0.000000000
      8        6           0.020833223   -0.025057811   -0.000000000
      9        6           0.020804414    0.031105937   -0.000000000
     10        6          -0.042431914   -0.019839268   -0.000000000
     11        6           0.014927260   -0.032816293   -0.000000000
     12        6           0.000846082   -0.048232386   -0.000000000
     13        6          -0.058975396    0.090037834   -0.000000000
     14        6           0.000452386   -0.004324343   -0.000000000
     15        6           0.005351272    0.009776343   -0.000000000
     16        6           0.029247583   -0.018755540   -0.000000000
     17        6          -0.024631443   -0.002031593   -0.000000000
     18        6          -0.023070753   -0.005604122   -0.000000000
     19        6           0.019070504    0.029872300   -0.000000000
     20        6           0.022422323    0.006146160   -0.000000000
     21        1          -0.017266473   -0.000781121   -0.000000000
     22        1          -0.010722660    0.013536377   -0.000000000
     23        1           0.005365500    0.016696473   -0.000000000
     24        1          -0.007205934   -0.015139103   -0.000000000
     25        1          -0.013215687   -0.011273148   -0.000000000
     26        1           0.001900297   -0.017037089   -0.000000000
     27        1           0.011337413   -0.009800934   -0.000000000
     28        1          -0.000214376    0.017207597   -0.000000000
     29        1          -0.003705103    0.016722219   -0.000000000
     30        1           0.013310337    0.011336479   -0.000000000
     31        1           0.016427114   -0.005895633   -0.000000000
     32        1           0.004378213   -0.013745374   -0.000000000
 -------------------------------------------------------------------
 Cartesian Forces:  Max     0.090037834 RMS     0.021393976

 GradGradGradGradGradGradGradGradGradGradGradGradGradGradGradGradGradGrad
 Berny optimization.
 FormGI is forming the generalized inverse of G from B-inverse, IUseBI=4.
 Internal  Forces:  Max     0.077893246 RMS     0.012032891
 Search for a local minimum.
 Step number   1 out of a maximum of  192
 All quantities printed in internal units (Hartrees-Bohrs-Radians)
 Mixed Optimization -- RFO/linear search
 Second derivative matrix not updated -- first step.
 ITU=  0
     Eigenvalues ---    0.01311   0.01382   0.01763   0.01790   0.01834
     Eigenvalues ---    0.01862   0.01875   0.01880   0.01886   0.01906
     Eigenvalues ---    0.01912   0.01959   0.01987   0.02042   0.02049
     Eigenvalues ---    0.02050   0.02064   0.02072   0.02078   0.02087
     Eigenvalues ---    0.02121   0.02194   0.02254   0.02277   0.02282
     Eigenvalues ---    0.02314   0.02352   0.02426   0.02665   0.16000
     Eigenvalues ---    0.16000   0.16000   0.16000   0.16000   0.16000
     Eigenvalues ---    0.16000   0.16000   0.16000   0.16000   0.16000
     Eigenvalues ---    0.16000   0.22000   0.22000   0.22153   0.22570
     Eigenvalues ---    0.22640   0.23545   0.23680   0.24522   0.24548
     Eigenvalues ---    0.24937   0.25000   0.25000   0.25000   0.27785
     Eigenvalues ---    0.28587   0.35920   0.37230   0.37230   0.37230
     Eigenvalues ---    0.37230   0.37230   0.37230   0.37230   0.37230
     Eigenvalues ---    0.37230   0.37230   0.37230   0.37230   0.38580
     Eigenvalues ---    0.39405   0.40242   0.41108   0.41171   0.41465
     Eigenvalues ---    0.42680   0.43242   0.43330   0.43830   0.43957
     Eigenvalues ---    0.45105   0.45393   0.45502   0.46637   0.47904
     Eigenvalues ---    0.49312   0.52245   0.53925   0.54264   0.54608
 RFO step:  Lambda=-5.62861047D-02 EMin= 1.31070919D-02
 Linear search not attempted -- first point.
 Maximum step size (   0.300) exceeded in Quadratic search.
    -- Step size scaled by   0.871
 Iteration  1 RMS(Cart)=  0.04440790 RMS(Int)=  0.00030595
 Iteration  2 RMS(Cart)=  0.00041207 RMS(Int)=  0.00009536
 Iteration  3 RMS(Cart)=  0.00000016 RMS(Int)=  0.00009536
 ClnCor:  largest displacement from symmetrization is 8.92D-11 for atom    31.
 Variable       Old X    -DE/DX   Delta X   Delta X   Delta X     New X
                                 (Linear)    (Quad)   (Total)
    R1        2.68915  -0.01471   0.00000  -0.03172  -0.03187   2.65728
    R2        2.66423  -0.00054   0.00000  -0.00507  -0.00508   2.65915
    R3        2.02201   0.01726   0.00000   0.03509   0.03509   2.05709
    R4        2.67347  -0.00697   0.00000  -0.01298  -0.01311   2.66036
    R5        2.02201   0.01725   0.00000   0.03508   0.03508   2.05708
    R6        2.54379   0.04439   0.00000   0.06630   0.06632   2.61011
    R7        2.02201   0.01740   0.00000   0.03538   0.03538   2.05738
    R8        2.60106   0.04468   0.00000   0.06786   0.06829   2.66935
    R9        2.91437  -0.02517   0.00000  -0.06370  -0.06354   2.85083
   R10        2.62154   0.00435   0.00000   0.00783   0.00796   2.62950
   R11        2.90234  -0.01992   0.00000  -0.05720  -0.05718   2.84516
   R12        2.02201   0.01675   0.00000   0.03405   0.03405   2.05605
   R13        2.54868   0.03374   0.00000   0.04961   0.04960   2.59828
   R14        2.60114   0.02934   0.00000   0.05693   0.05671   2.65785
   R15        2.68683   0.00374   0.00000   0.00052   0.00045   2.68728
   R16        2.02201   0.01721   0.00000   0.03498   0.03498   2.05699
   R17        2.69718  -0.02043   0.00000  -0.04570  -0.04577   2.65141
   R18        2.02201   0.01712   0.00000   0.03481   0.03481   2.05682
   R19        2.65821   0.01744   0.00000   0.02900   0.02900   2.68721
   R20        2.02201   0.01451   0.00000   0.02950   0.02950   2.05150
   R21        2.57093   0.03836   0.00000   0.06832   0.06849   2.63942
   R22        2.65370   0.05062   0.00000   0.08691   0.08694   2.74063
   R23        2.52793   0.07789   0.00000   0.11874   0.11861   2.64654
   R24        2.55297   0.02008   0.00000   0.02962   0.02959   2.58256
   R25        2.68375   0.02579   0.00000   0.03994   0.03984   2.72360
   R26        2.02201   0.01691   0.00000   0.03438   0.03438   2.05639
   R27        2.64691   0.01378   0.00000   0.02396   0.02397   2.67087
   R28        2.68526   0.02518   0.00000   0.04004   0.04004   2.72530
   R29        2.65162  -0.01383   0.00000  -0.02479  -0.02486   2.62676
   R30        2.02201   0.01711   0.00000   0.03479   0.03479   2.05679
   R31        2.65298   0.00178   0.00000   0.00153   0.00146   2.65444
   R32        2.02201   0.01748   0.00000   0.03554   0.03554   2.05755
   R33        2.64965  -0.01072   0.00000  -0.01884  -0.01885   2.63080
   R34        2.02201   0.01745   0.00000   0.03548   0.03548   2.05749
   R35        2.64492   0.01426   0.00000   0.02524   0.02531   2.67023
   R36        2.02201   0.01431   0.00000   0.02909   0.02909   2.05109
    A1        2.09488   0.01063   0.00000   0.01602   0.01594   2.11081
    A2        2.09415  -0.00626   0.00000  -0.01184  -0.01179   2.08236
    A3        2.09415  -0.00436   0.00000  -0.00418  -0.00414   2.09001
    A4        2.10269   0.00437   0.00000   0.00299   0.00278   2.10547
    A5        2.09025  -0.00292   0.00000  -0.00447  -0.00437   2.08588
    A6        2.09025  -0.00145   0.00000   0.00148   0.00159   2.09184
    A7        2.05386   0.00085   0.00000   0.00800   0.00796   2.06182
    A8        2.11466  -0.00263   0.00000  -0.01289  -0.01287   2.10179
    A9        2.11466   0.00178   0.00000   0.00489   0.00491   2.11957
   A10        2.14028  -0.01138   0.00000  -0.01990  -0.01992   2.12035
   A11        2.28115   0.00452   0.00000   0.00647   0.00608   2.28723
   A12        1.86176   0.00686   0.00000   0.01343   0.01385   1.87560
   A13        2.13649  -0.01360   0.00000  -0.02787  -0.02771   2.10878
   A14        1.85677   0.01417   0.00000   0.02907   0.02928   1.88606
   A15        2.28992  -0.00057   0.00000  -0.00119  -0.00157   2.28835
   A16        2.03818   0.00913   0.00000   0.02076   0.02096   2.05914
   A17        2.12250  -0.00538   0.00000  -0.01366  -0.01376   2.10874
   A18        2.12250  -0.00375   0.00000  -0.00710  -0.00720   2.11531
   A19        2.29169   0.02043   0.00000   0.04186   0.04192   2.33361
   A20        1.86916  -0.00804   0.00000  -0.02140  -0.02158   1.84758
   A21        2.12234  -0.01239   0.00000  -0.02046  -0.02034   2.10200
   A22        2.05279   0.00076   0.00000   0.00180   0.00170   2.05449
   A23        2.11520   0.00202   0.00000   0.00877   0.00882   2.12401
   A24        2.11520  -0.00278   0.00000  -0.01056  -0.01052   2.10468
   A25        2.10401   0.01203   0.00000   0.02109   0.02094   2.12495
   A26        2.08959  -0.00516   0.00000  -0.00709  -0.00701   2.08257
   A27        2.08959  -0.00687   0.00000  -0.01400  -0.01392   2.07566
   A28        2.07997   0.01015   0.00000   0.02375   0.02368   2.10365
   A29        2.10161  -0.00887   0.00000  -0.02717  -0.02713   2.07448
   A30        2.10161  -0.00128   0.00000   0.00342   0.00345   2.10506
   A31        2.05041  -0.01054   0.00000  -0.02445  -0.02445   2.02596
   A32        2.18474   0.01861   0.00000   0.03614   0.03604   2.22078
   A33        2.04804  -0.00806   0.00000  -0.01170  -0.01159   2.03645
   A34        2.15685  -0.00001   0.00000  -0.00172  -0.00152   2.15533
   A35        1.95719   0.00123   0.00000   0.00453   0.00405   1.96123
   A36        2.16914  -0.00122   0.00000  -0.00280  -0.00252   2.16662
   A37        1.87990  -0.01422   0.00000  -0.02562  -0.02559   1.85431
   A38        2.27990   0.02229   0.00000   0.04079   0.04073   2.32063
   A39        2.12339  -0.00806   0.00000  -0.01516  -0.01514   2.10824
   A40        2.05332   0.00560   0.00000   0.01604   0.01593   2.06925
   A41        2.11493   0.00042   0.00000   0.00493   0.00499   2.11993
   A42        2.11493  -0.00601   0.00000  -0.02098  -0.02092   2.09401
   A43        2.09781  -0.00410   0.00000  -0.00524  -0.00519   2.09262
   A44        2.09843   0.00984   0.00000   0.01325   0.01305   2.11148
   A45        2.08695  -0.00574   0.00000  -0.00801  -0.00786   2.07909
   A46        2.09406   0.00651   0.00000   0.01715   0.01707   2.11113
   A47        2.09456  -0.00401   0.00000  -0.01163  -0.01159   2.08298
   A48        2.09456  -0.00250   0.00000  -0.00552  -0.00548   2.08908
   A49        2.09926   0.00099   0.00000  -0.00404  -0.00420   2.09506
   A50        2.09196  -0.00059   0.00000   0.00164   0.00172   2.09368
   A51        2.09197  -0.00040   0.00000   0.00240   0.00248   2.09445
   A52        2.09757   0.00279   0.00000   0.00266   0.00256   2.10013
   A53        2.09281  -0.00137   0.00000  -0.00122  -0.00117   2.09164
   A54        2.09281  -0.00142   0.00000  -0.00144  -0.00139   2.09142
   A55        2.09067   0.00763   0.00000   0.02270   0.02274   2.11342
   A56        2.09626  -0.00568   0.00000  -0.01886  -0.01888   2.07738
   A57        2.09626  -0.00195   0.00000  -0.00384  -0.00387   2.09239
   A58        2.07406   0.00191   0.00000   0.00037   0.00027   2.07433
   A59        2.11126   0.01026   0.00000   0.03009   0.03005   2.14131
   A60        2.09787  -0.01217   0.00000  -0.03046  -0.03032   2.06755
    D1        0.00000  -0.00000   0.00000  -0.00000   0.00000   0.00000
    D2        3.14159   0.00000   0.00000  -0.00000   0.00000   3.14159
    D3        3.14159  -0.00000   0.00000  -0.00000   0.00000   3.14159
    D4        0.00000  -0.00000   0.00000  -0.00000   0.00000   0.00000
    D5        0.00000   0.00000   0.00000   0.00000   0.00000   0.00000
    D6        3.14159  -0.00000   0.00000   0.00000   0.00000   3.14159
    D7        3.14159   0.00000   0.00000   0.00000   0.00000   3.14159
    D8        0.00000  -0.00000   0.00000   0.00000   0.00000   0.00000
    D9        0.00000  -0.00000   0.00000  -0.00000   0.00000   0.00000
   D10        3.14159   0.00000   0.00000   0.00000   0.00000   3.14159
   D11        3.14159  -0.00000   0.00000  -0.00000   0.00000   3.14159
   D12        0.00000  -0.00000   0.00000   0.00000   0.00000   0.00000
   D13        0.00000   0.00000   0.00000   0.00000   0.00000   0.00000
   D14        3.14159   0.00000   0.00000   0.00000   0.00000   3.14159
   D15        3.14159  -0.00000   0.00000   0.00000   0.00000   3.14159
   D16        0.00000   0.00000   0.00000   0.00000   0.00000   0.00000
   D17        0.00000  -0.00000   0.00000  -0.00000   0.00000   0.00000
   D18        3.14159  -0.00000   0.00000  -0.00000   0.00000   3.14159
   D19        3.14159  -0.00000   0.00000  -0.00000   0.00000   3.14159
   D20        0.00000  -0.00000   0.00000  -0.00000   0.00000   0.00000
   D21        3.14159  -0.00000   0.00000   0.00000   0.00000   3.14159
   D22        0.00000   0.00000   0.00000   0.00000   0.00000   0.00000
   D23        0.00000   0.00000   0.00000   0.00000   0.00000   0.00000
   D24        3.14159   0.00000   0.00000   0.00000   0.00000   3.14159
   D25        0.00000   0.00000   0.00000  -0.00000   0.00000   0.00000
   D26        3.14159   0.00000   0.00000   0.00000   0.00000   3.14159
   D27        3.14159  -0.00000   0.00000  -0.00000   0.00000   3.14159
   D28        0.00000   0.00000   0.00000  -0.00000   0.00000   0.00000
   D29        3.14159   0.00000   0.00000   0.00000   0.00000   3.14159
   D30        0.00000   0.00000   0.00000   0.00000   0.00000   0.00000
   D31        0.00000   0.00000   0.00000   0.00000   0.00000   0.00000
   D32        3.14159   0.00000   0.00000   0.00000   0.00000   3.14159
   D33        3.14159   0.00000   0.00000   0.00000   0.00000   3.14159
   D34        0.00000   0.00000   0.00000   0.00000   0.00000   0.00000
   D35        0.00000  -0.00000   0.00000  -0.00000   0.00000   0.00000
   D36        3.14159  -0.00000   0.00000  -0.00000   0.00000   3.14159
   D37        3.14159  -0.00000   0.00000  -0.00000   0.00000   3.14159
   D38        0.00000  -0.00000   0.00000  -0.00000   0.00000   0.00000
   D39        0.00000  -0.00000   0.00000  -0.00000   0.00000   0.00000
   D40        3.14159  -0.00000   0.00000  -0.00000   0.00000   3.14159
   D41        0.00000   0.00000   0.00000   0.00000   0.00000   0.00000
   D42        3.14159   0.00000   0.00000   0.00000   0.00000   3.14159
   D43        3.14159   0.00000   0.00000   0.00000   0.00000   3.14159
   D44        0.00000   0.00000   0.00000   0.00000   0.00000   0.00000
   D45        0.00000  -0.00000   0.00000  -0.00000   0.00000   0.00000
   D46        3.14159  -0.00000   0.00000  -0.00000   0.00000   3.14159
   D47        3.14159  -0.00000   0.00000  -0.00000   0.00000   3.14159
   D48        0.00000  -0.00000   0.00000  -0.00000   0.00000   0.00000
   D49        0.00000  -0.00000   0.00000  -0.00000   0.00000   0.00000
   D50        3.14159  -0.00000   0.00000  -0.00000   0.00000   3.14159
[...]
 363,0.,-0.00090983,0.00095828,0.,0.00021215,-0.00053578,0.,0.00022389,
 0.00029983,0.,0.00001914,-0.00006787,0.,0.00001593,0.00000314,0.,0.000
 01431,0.00000290,0.,0.00001835,0.00005019,0.,-0.00008044,0.00000877,0.
 ,0.00009982,-0.00011340,0.,-0.00035474,0.00075776,0.,0.10758590,0.3100
 3783,0.,0.,0.00686992,0.,0.,0.00388803,0.,0.,-0.03844586,0.,0.,0.00399
 259,0.,0.,0.00745245,0.,0.,-0.00041944,0.,0.,0.00018467,0.,0.,-0.00024
 851,0.,0.,-0.00004711,0.,0.,-0.00002622,0.,0.,0.00009220,0.,0.,0.00005
 577,0.,0.,-0.00394940,0.,0.,-0.00001983,0.,0.,0.00011773,0.,0.,0.00002
 563,0.,0.,-0.00003894,0.,0.,0.00000248,0.,0.,0.00001454,0.,0.,-0.00004
 301,0.,0.,0.00016699,0.,0.,-0.00407157,0.,0.,0.02540473,0.01151281,0.0
 1808167,0.,-0.00169078,0.00292395,0.,-0.00086887,0.00064191,0.,-0.0047
 5133,0.00122351,0.,-0.00639127,-0.03028780,0.,-0.10505817,-0.10331693,
 0.,0.00148785,0.00018055,0.,-0.00042763,-0.00040671,0.,0.00000901,0.00
 037051,0.,0.00010072,0.00001114,0.,0.00009538,0.00001817,0.,-0.0001098
 2,-0.00018857,0.,-0.00031573,-0.00166327,0.,-0.00032430,0.00037727,0.,
 -0.00005894,-0.00010142,0.,-0.00001963,0.00004273,0.,-0.00000802,0.000
 02844,0.,-0.00003920,-0.00001074,0.,0.00004694,0.00000598,0.,-0.000079
 27,-0.00004785,0.,0.00099858,-0.00072213,0.,0.00035442,0.00085576,0.,0
 .00007227,-0.00009626,0.,0.10553294,-0.01309758,-0.01804017,0.,0.00425
 331,-0.00182491,0.,0.00049222,0.00053926,0.,-0.00007595,0.00170430,0.,
 -0.00065422,0.00061165,0.,-0.10172054,-0.28934622,0.,0.00046909,-0.000
 28534,0.,-0.00039660,0.00013049,0.,-0.00000874,0.00012151,0.,0.0000099
 7,0.00005273,0.,0.00007969,-0.00009855,0.,-0.00028780,0.00010684,0.,0.
 00010547,-0.00018220,0.,0.00002282,0.00011089,0.,-0.00002438,-0.000012
 14,0.,0.00000850,0.00002918,0.,-0.00001498,0.00002567,0.,-0.00002975,-
 0.00001425,0.,0.00001995,-0.00001582,0.,-0.00006095,-0.00001330,0.,0.0
 0010338,0.00115055,0.,-0.00059750,-0.00091987,0.,-0.00006279,-0.000076
 23,0.,0.11135981,0.30616839,0.,0.,0.00374359,0.,0.,0.00687244,0.,0.,-0
 .00042167,0.,0.,0.00733826,0.,0.,0.00394339,0.,0.,-0.03824870,0.,0.,-0
 .00389725,0.,0.,-0.00003807,0.,0.,0.00000361,0.,0.,-0.00004860,0.,0.,0
 .00011107,0.,0.,0.00010639,0.,0.,0.00020322,0.,0.,-0.00020456,0.,0.,-0
 .00009760,0.,0.,0.00002396,0.,0.,0.00001016,0.,0.,0.00000108,0.,0.,0.0
 0000719,0.,0.,-0.00001578,0.,0.,-0.00407301,0.,0.,0.00020146,0.,0.,-0.
 00127959,0.,0.,0.02541335,0.00004668,-0.00000892,0.,0.00005950,0.00000
 408,0.,-0.00010212,0.00003323,0.,0.00016482,-0.00015056,0.,-0.00042871
 ,0.00013618,0.,0.00028558,-0.00029641,0.,0.00608847,0.00120754,0.,-0.2
 4478574,-0.12898104,0.,-0.01757293,-0.01835081,0.,-0.00282763,0.003793
 77,0.,0.00028184,0.00075163,0.,0.00117342,0.00093434,0.,0.00005271,0.0
 0008098,0.,0.00013202,-0.00000490,0.,-0.00010059,0.00001792,0.,0.00004
 613,0.00000246,0.,-0.00003530,0.00002514,0.,0.00000499,-0.00004882,0.,
 -0.00000334,0.00004265,0.,-0.00002465,-0.00012163,0.,0.00002433,-0.000
 02128,0.,0.00000332,-0.00001016,0.,0.00000037,-0.00002207,0.,-0.000102
 67,0.00013522,0.,0.25727199,0.00043470,0.00003572,0.,0.00007779,0.0001
 3025,0.,-0.00008371,0.00017762,0.,-0.00006699,-0.00018050,0.,-0.000035
 59,0.00166346,0.,-0.00040640,-0.00063296,0.,-0.02806080,-0.01100915,0.
 ,-0.13078022,-0.15051239,0.,0.01274184,0.01114489,0.,0.00257921,-0.000
 58949,0.,0.00062285,-0.00060676,0.,0.00240834,-0.00503793,0.,-0.001697
 84,-0.00016941,0.,0.00028496,-0.00050632,0.,0.00010852,-0.00003342,0.,
 -0.00001854,0.00002426,0.,0.00000417,-0.00001420,0.,-0.00002681,0.0000
 4432,0.,-0.00003412,-0.00006198,0.,0.00002482,0.00019025,0.,0.00000820
 ,-0.00002252,0.,0.00002592,0.00003835,0.,-0.00000918,0.00001850,0.,0.0
 0067576,0.00005136,0.,0.14148033,0.15478786,0.,0.,0.00002410,0.,0.,-0.
 00003768,0.,0.,0.00011895,0.,0.,0.00024075,0.,0.,-0.00416492,0.,0.,0.0
 0003096,0.,0.,0.00439826,0.,0.,-0.03866097,0.,0.,0.00347965,0.,0.,0.00
 597117,0.,0.,-0.00049909,0.,0.,0.00826967,0.,0.,0.00014009,0.,0.,-0.00
 045585,0.,0.,0.00020390,0.,0.,0.00002015,0.,0.,-0.00000737,0.,0.,-0.00
 003369,0.,0.,0.00007199,0.,0.,-0.00109423,0.,0.,-0.00000428,0.,0.,0.00
 003668,0.,0.,0.00002244,0.,0.,0.00023996,0.,0.,0.02515501,-0.00001442,
 -0.00000058,0.,-0.00003796,0.00000956,0.,0.00014517,0.00006582,0.,-0.0
 0042414,0.00023230,0.,0.00073246,0.00078889,0.,0.00005404,0.00006609,0
 .,-0.00505998,0.00196792,0.,0.00201957,0.02923174,0.,-0.05938834,0.018
 39483,0.,0.00496645,-0.02770207,0.,-0.00437945,-0.00227954,0.,-0.00092
 706,-0.00027305,0.,0.00009828,0.00019714,0.,-0.00018857,-0.00000800,0.
 ,-0.00022523,-0.00020314,0.,0.00000190,-0.00012851,0.,0.00005228,-0.00
 006150,0.,0.00001172,0.00009868,0.,-0.00004297,-0.00004090,0.,0.000875
 31,-0.00083537,0.,-0.00001940,0.00001662,0.,-0.00000291,0.00000473,0.,
 -0.00002588,0.00004475,0.,-0.00000977,-0.00002974,0.,0.00123020,-0.000
 69470,0.,0.05946836,0.00000944,0.00001879,0.,0.00001520,-0.00003025,0.
 ,-0.00002597,-0.00002276,0.,0.00018661,-0.00014081,0.,-0.00051548,-0.0
 0006878,0.,0.00000825,-0.00009857,0.,0.00269823,0.00057830,0.,-0.00189
 506,-0.00930269,0.,0.01803763,-0.33527150,0.,0.00357616,-0.01291095,0.
 ,-0.00307047,0.00017482,0.,-0.00015224,0.00095140,0.,0.00005842,0.0000
 4347,0.,-0.00007245,0.00001977,0.,-0.00023581,-0.00010480,0.,0.0000194
 5,-0.00004692,0.,-0.00001042,-0.00003411,0.,0.00000212,0.00003131,0.,-
 0.00002322,-0.00006735,0.,0.00058257,-0.00039039,0.,0.00002158,-0.0000
 1112,0.,0.00000920,-0.00000900,0.,0.00000788,-0.00002437,0.,0.00000076
 ,0.00002220,0.,0.00017453,0.00084663,0.,-0.01923496,0.35488341,0.,0.,-
 0.00003284,0.,0.,-0.00000985,0.,0.,-0.00008533,0.,0.,-0.00018344,0.,0.
 ,0.00049114,0.,0.,-0.00000342,0.,0.,0.00568320,0.,0.,0.00328181,0.,0.,
 -0.03710392,0.,0.,0.00367292,0.,0.,0.00766376,0.,0.,-0.00063225,0.,0.,
 -0.00053410,0.,0.,0.00013005,0.,0.,-0.00044953,0.,0.,-0.00003110,0.,0.
 ,0.00004776,0.,0.,-0.00004079,0.,0.,0.00011434,0.,0.,0.00033113,0.,0.,
 0.00000029,0.,0.,0.00000630,0.,0.,0.00004086,0.,0.,0.00003890,0.,0.,-0
 .00347683,0.,0.,0.02584673,0.00000540,-0.00000875,0.,-0.00000484,0.000
 01417,0.,-0.00000392,-0.00000426,0.,-0.00002997,0.00005489,0.,0.000016
 67,0.00003381,0.,-0.00002684,0.00000400,0.,0.00038819,-0.00077675,0.,-
 0.00217483,-0.00380016,0.,-0.01911545,0.01484887,0.,-0.27257097,0.1169
 6169,0.,0.00264239,0.00045246,0.,0.00128372,0.00007127,0.,0.00004831,-
 0.00025845,0.,0.00009837,0.00000551,0.,0.00008831,0.00016923,0.,0.0000
 0868,0.00001371,0.,-0.00005185,0.00001300,0.,0.00018213,-0.00024519,0.
 ,-0.00062893,-0.00088201,0.,-0.00138346,-0.00006526,0.,-0.00001033,0.0
 0000329,0.,-0.00000639,0.00000727,0.,0.00000288,0.00000678,0.,0.000029
 44,-0.00000487,0.,-0.00093416,0.00061676,0.,0.00112347,-0.00013044,0.,
 0.29181945,0.00003529,-0.00008351,0.,0.00010164,0.00000633,0.,0.000036
 02,0.00014169,0.,0.00011030,-0.00058987,0.,0.00015199,0.00006074,0.,-0
 .00006774,0.00000676,0.,-0.00071623,-0.00054438,0.,-0.00266616,-0.0013
 2737,0.,-0.01690562,0.01097899,0.,0.11849192,-0.12292020,0.,0.02867231
 ,-0.00795291,0.,-0.00142869,-0.00601605,0.,0.00129565,0.00028847,0.,0.
 00019391,0.00011368,0.,-0.00007296,-0.00011744,0.,0.00008685,0.0001953
 3,0.,0.00001242,0.00014395,0.,-0.00054096,0.00041056,0.,0.00047832,-0.
 00128137,0.,0.00033941,0.00150648,0.,0.00000660,-0.00000298,0.,0.00002
 101,0.00000125,0.,-0.00000965,-0.00000243,0.,0.00002414,0.00000495,0.,
 -0.00076756,0.00033126,0.,0.00038388,0.00100197,0.,-0.12537262,0.12567
 789,0.,0.,-0.00004651,0.,0.,-0.00001904,0.,0.,-0.00032384,0.,0.,0.0001
 6606,0.,0.,-0.00082851,0.,0.,0.00006697,0.,0.,-0.00069017,0.,0.,0.0074
 5851,0.,0.,0.00422455,0.,0.,-0.03684926,0.,0.,0.00354395,0.,0.,0.00537
 166,0.,0.,0.00072561,0.,0.,-0.00017082,0.,0.,-0.00009684,0.,0.,0.00008
 014,0.,0.,0.00002552,0.,0.,-0.00024869,0.,0.,-0.00000826,0.,0.,-0.0030
 1419,0.,0.,0.00000094,0.,0.,0.00008976,0.,0.,0.00000587,0.,0.,0.000032
 60,0.,0.,0.00009542,0.,0.,-0.00483271,0.,0.,0.02419928,0.00004966,0.00
 006214,0.,-0.00016973,0.00024770,0.,0.00015750,-0.00060949,0.,0.000637
 12,0.00095284,0.,0.00010806,-0.00013403,0.,0.00004713,0.00010316,0.,0.
 00074960,-0.00103932,0.,-0.00031683,-0.00016284,0.,-0.00013404,0.00000
 442,0.,0.00017239,0.00014943,0.,-0.00057907,-0.00036143,0.,-0.00392780
 ,-0.00175120,0.,0.01029744,-0.02472782,0.,-0.06350165,0.03632142,0.,-0
 .00073372,0.02804756,0.,0.00119050,0.00200129,0.,0.00013346,-0.0003600
 4,0.,0.00009738,0.00003951,0.,0.00032688,0.00149089,0.,-0.00489113,-0.
 00026047,0.,0.00001150,0.00003828,0.,0.00000182,-0.00000643,0.,-0.0004
 1550,0.00040003,0.,0.00002731,0.00001469,0.,0.00000488,-0.00013958,0.,
 0.00000922,0.00000049,0.,0.00001426,-0.00006353,0.,0.06153924,0.000019
 24,0.00016665,0.,-0.00025379,0.00024997,0.,-0.00039821,-0.00047921,0.,
 0.00097776,0.00069653,0.,-0.00022341,-0.00006009,0.,0.00020718,-0.0000
 1666,0.,0.00075507,-0.00098505,0.,-0.00047732,0.00001473,0.,0.00005808
 ,0.00002232,0.,0.00002864,-0.00004808,0.,-0.00012370,0.00042474,0.,-0.
 00372934,0.00031290,0.,0.00482828,-0.01582371,0.,0.03820098,-0.3279017
 2,0.,-0.00037409,-0.00831032,0.,-0.00220155,0.00066917,0.,0.00035943,0
 .00012426,0.,-0.00004183,0.00027321,0.,-0.00037818,-0.00055673,0.,0.00
 147529,0.00133492,0.,0.00000009,0.00002739,0.,-0.00003806,-0.00000638,
 0.,-0.00017637,0.00036456,0.,0.00000342,-0.00000450,0.,0.00000342,-0.0
 0012080,0.,-0.00000568,-0.00002117,0.,0.00001257,-0.00003610,0.,-0.039
 28289,0.34907847,0.,0.,-0.00003608,0.,0.,0.00005393,0.,0.,0.00015205,0
 .,0.,-0.00509168,0.,0.,0.00041529,0.,0.,0.00013395,0.,0.,-0.00008036,0
 .,0.,-0.00072026,0.,0.,0.00024020,0.,0.,-0.00094383,0.,0.,-0.00041750,
 0.,0.,0.00947481,0.,0.,0.00577364,0.,0.,-0.03987320,0.,0.,0.00389430,0
 .,0.,-0.00249042,0.,0.,-0.00006798,0.,0.,-0.00005447,0.,0.,0.00002522,
 0.,0.,0.00411491,0.,0.,0.00004260,0.,0.,-0.00003624,0.,0.,0.00022618,0
 .,0.,0.00003940,0.,0.,-0.00015205,0.,0.,0.00007443,0.,0.,0.00006749,0.
 ,0.,0.02489871,0.00001579,0.00002587,0.,-0.00002773,0.00001487,0.,0.00
 003418,-0.00003274,0.,-0.00007555,0.00001783,0.,-0.00001049,0.00000026
 ,0.,0.00002247,-0.00000574,0.,0.00004108,0.00005152,0.,-0.00000391,0.0
 0000658,0.,0.00004517,-0.00009028,0.,-0.00033378,-0.00005260,0.,0.0004
 3945,-0.00109247,0.,0.00018588,-0.00023347,0.,0.00008984,0.00041298,0.
 ,0.00096766,-0.00199245,0.,0.00716351,-0.02306864,0.,-0.06827465,0.051
 48573,0.,-0.00104353,0.03076053,0.,-0.00515017,0.00064978,0.,-0.000847
 98,-0.00033962,0.,-0.00337466,-0.00210468,0.,0.00000440,0.00000359,0.,
 0.00000528,-0.00000330,0.,-0.00001322,0.00001783,0.,0.00000761,0.00000
 641,0.,0.00000049,0.00000450,0.,-0.00002899,-0.00001655,0.,0.00001001,
 -0.00000426,0.,-0.00049410,0.00054042,0.,0.06946655,-0.00000818,0.0000
 2303,0.,-0.00002831,0.00002198,0.,-0.00001130,-0.00005045,0.,0.0000268
 0,0.00001720,0.,-0.00004043,-0.00006370,0.,0.00002762,0.00001607,0.,0.
 00002681,0.00002333,0.,-0.00005872,0.00003017,0.,0.00007260,-0.0000740
 4,0.,-0.00034612,-0.00006016,0.,0.00086040,-0.00073983,0.,0.00006707,0
 .00019813,0.,-0.00044681,0.00015365,0.,0.00252638,0.00063423,0.,0.0059
 2781,-0.01647846,0.,0.05110654,-0.32382407,0.,-0.00086239,-0.00618681,
 0.,0.00212081,0.00144414,0.,-0.00046123,0.00073014,0.,-0.00370330,-0.0
 0033613,0.,-0.00000466,0.00000426,0.,-0.00000723,0.00000313,0.,-0.0000
 0933,0.00002520,0.,0.00000574,-0.00000137,0.,-0.00001013,-0.00000240,0
 .,-0.00003158,-0.00002510,0.,0.00001714,0.00000893,0.,-0.00101402,0.00
 061689,0.,-0.05592474,0.34353291,0.,0.,0.00000227,0.,0.,-0.00001569,0.
 ,0.,-0.00001397,0.,0.,0.00021302,0.,0.,-0.00000824,0.,0.,-0.00001975,0
 .,0.,0.00004157,0.,0.,-0.00000139,0.,0.,-0.00002345,0.,0.,0.00010394,0
 .,0.,0.00036683,0.,0.,-0.00012123,0.,0.,-0.00002704,0.,0.,-0.00348216,
 0.,0.,0.00370700,0.,0.,-0.03760488,0.,0.,0.00447393,0.,0.,0.00751346,0
 .,0.,-0.00051753,0.,0.,0.00528220,0.,0.,0.00000234,0.,0.,0.00000371,0.
 ,0.,0.00002127,0.,0.,-0.00000215,0.,0.,0.00000132,0.,0.,-0.00003901,0.
 ,0.,0.00001724,0.,0.,0.00019090,0.,0.,0.02551542,-0.00002229,-0.000021
 68,0.,0.00001689,0.00000563,0.,-0.00004196,-0.00001761,0.,0.00008656,-
 0.00009433,0.,-0.00003498,-0.00003549,0.,-0.00001809,0.00001313,0.,-0.
 00005304,-0.00000485,0.,0.00000068,0.00001193,0.,0.00002160,-0.0000400
 2,0.,-0.00004273,-0.00000277,0.,0.00019546,-0.00000823,0.,-0.00003694,
 0.00022779,0.,-0.00047274,0.00009466,0.,-0.00029093,-0.00124222,0.,-0.
 00359496,0.00361909,0.,-0.01747538,-0.02187265,0.,-0.21804217,-0.13746
 728,0.,0.00807470,0.00608281,0.,0.00088541,0.00148044,0.,-0.00010930,0
 .00077623,0.,-0.00000735,-0.00000044,0.,-0.00001081,0.00000584,0.,0.00
 000943,0.00000376,0.,-0.00000736,-0.00000679,0.,-0.00000598,-0.0000068
 2,0.,-0.00000351,-0.00001011,0.,0.00000941,-0.00001946,0.,0.00000174,0
 .00005594,0.,0.00127513,0.00024103,0.,0.22879327,-0.00000353,-0.000016
 66,0.,0.00001034,0.00000872,0.,-0.00002406,0.00000173,0.,0.00005403,0.
 00004358,0.,0.00003642,-0.00003638,0.,-0.00001936,0.00002369,0.,-0.000
 00400,0.00006599,0.,0.00002904,-0.00006524,0.,-0.00008253,0.00003137,0
 .,0.00005872,-0.00000144,0.,-0.00016319,-0.00000767,0.,-0.00001443,-0.
 00012851,0.,0.00012549,0.00008219,0.,0.00016626,0.00035592,0.,0.002472
 52,0.00002191,0.,0.00960380,0.01050541,0.,-0.13784718,-0.17828382,0.,-
 0.02532710,-0.01433491,0.,0.00267228,-0.00481219,0.,0.00107791,-0.0001
 4355,0.,-0.00000440,0.00000025,0.,-0.00000253,0.00000331,0.,0.00000253
 ,0.00000155,0.,0.00000177,-0.00000269,0.,-0.00000947,-0.00000037,0.,-0
 .00000231,-0.00000649,0.,-0.00001132,0.00007703,0.,-0.00000613,-0.0000
 0433,0.,-0.00046947,0.00083617,0.,0.14846851,0.18524217,0.,0.,-0.00000
 072,0.,0.,0.00000262,0.,0.,-0.00000342,0.,0.,-0.00006929,0.,0.,0.00001
 789,0.,0.,0.00000872,0.,0.,0.00000625,0.,0.,-0.00001723,0.,0.,-0.00005
 887,0.,0.,0.00004508,0.,0.,-0.00082539,0.,0.,0.00007975,0.,0.,-0.00038
 015,0.,0.,0.00022558,0.,0.,0.00809820,0.,0.,0.00384090,0.,0.,-0.037703
 18,0.,0.,0.00336473,0.,0.,0.00589072,0.,0.,-0.00057257,0.,0.,0.0000005
 5,0.,0.,0.00000262,0.,0.,-0.00000090,0.,0.,-0.00000378,0.,0.,0.0000290
 3,0.,0.,0.00000387,0.,0.,0.00006056,0.,0.,0.00010788,0.,0.,-0.00471259
 ,0.,0.,0.02583341,-0.00001229,0.00000103,0.,-0.00000612,0.00000299,0.,
 -0.00001544,-0.00000907,0.,0.00003811,0.00002251,0.,-0.00003442,-0.000
 06691,0.,-0.00000185,0.00002721,0.,-0.00003850,0.00008109,0.,-0.000037
 39,-0.00000721,0.,0.00002187,-0.00002042,0.,-0.00006773,0.00001857,0.,
 -0.00048670,0.00095479,0.,-0.00028713,-0.00031129,0.,-0.00000261,-0.00
 012473,0.,0.00012715,0.00005243,0.,0.00051357,-0.00052516,0.,0.0015370
 1,0.00108919,0.,-0.00158507,-0.00101722,0.,-0.30654206,0.08678387,0.,-
 0.01776310,0.01025509,0.,-0.00110656,-0.00395718,0.,-0.00000861,0.0000
 0164,0.,-0.00000638,0.00000507,0.,0.00000602,0.00000129,0.,0.00000028,
 -0.00000607,0.,-0.00000971,-0.00000946,0.,-0.00001505,-0.00002266,0.,0
 .00002278,-0.00000763,0.,-0.00000997,0.00002138,0.,-0.00017711,-0.0000
 9913,0.,0.00067566,0.00032368,0.,0.32417099,-0.00000205,0.00001503,0.,
 -0.00001636,-0.00000550,0.,0.00001760,-0.00001234,0.,-0.00003743,0.000
 01687,0.,-0.00003929,-0.00001346,0.,0.00001238,0.00000549,0.,-0.000083
 20,0.00001529,0.,-0.00004366,0.00008967,0.,0.00011713,-0.00002486,0.,-
 0.00003063,-0.00004704,0.,-0.00056250,0.00081574,0.,-0.00020048,-0.000
 09473,0.,-0.00000162,-0.00016758,0.,0.00022002,0.00012488,0.,-0.000759
 69,-0.00073797,0.,-0.00013960,-0.00556267,0.,0.03037249,-0.00476489,0.
 ,0.08720821,-0.08960866,0.,-0.02092685,0.01055694,0.,-0.00297535,-0.00
 259993,0.,0.00000068,0.00000147,0.,0.00000067,-0.00000107,0.,-0.000002
 98,0.00000333,0.,0.00000091,0.00000065,0.,-0.00000017,-0.00000184,0.,-
 0.00000778,-0.00000502,0.,0.00002225,-0.00002015,0.,-0.00007108,0.0000
 3457,0.,0.00139179,-0.00038354,0.,-0.00057366,0.00134425,0.,-0.0933771
 3,0.08995726,0.,0.,0.00000594,0.,0.,0.00000215,0.,0.,-0.00000933,0.,0.
 ,0.00007937,0.,0.,-0.00005971,0.,0.,0.00005211,0.,0.,-0.00010819,0.,0.
 ,0.00003440,0.,0.,0.00001589,0.,0.,0.00009978,0.,0.,0.00024717,0.,0.,-
 0.00039268,0.,0.,0.00012441,0.,0.,-0.00086321,0.,0.,-0.00067387,0.,0.,
 0.00593024,0.,0.,0.00357112,0.,0.,-0.03764352,0.,0.,0.00389209,0.,0.,0
 .00796052,0.,0.,-0.00001273,0.,0.,0.00000110,0.,0.,0.00000260,0.,0.,-0
 .00000097,0.,0.,-0.00001288,0.,0.,-0.00000072,0.,0.,-0.00001497,0.,0.,
 0.00003279,0.,0.,0.00018815,0.,0.,-0.00343348,0.,0.,0.02568990,-0.0000
 3771,-0.00006057,0.,0.00007450,-0.00001882,0.,-0.00005296,0.00004368,0
 .,0.00016833,-0.00010630,0.,-0.00002590,0.00001591,0.,-0.00003046,-0.0
 0000880,0.,0.00001377,0.00006937,0.,0.00016405,-0.00008164,0.,0.000057
 13,-0.00048128,0.,-0.00140329,0.00057435,0.,0.00112853,-0.00008459,0.,
 0.00010556,0.00008157,0.,0.00009600,0.00001638,0.,0.00034180,0.0014525
 7,0.,-0.00520218,0.00031770,0.,-0.00095455,-0.00028636,0.,-0.00319821,
 -0.00260869,0.,0.00848172,-0.02502255,0.,-0.07033894,0.05618760,0.,-0.
 00057810,0.02980787,0.,0.00000477,-0.00000426,0.,-0.00000086,-0.000000
 77,0.,0.00000919,-0.00001696,0.,-0.00001279,-0.00000128,0.,0.00006176,
 -0.00002793,0.,0.00000519,0.00000731,0.,-0.00085191,-0.00179862,0.,-0.
 00040355,0.00015723,0.,0.00008136,0.00004086,0.,0.00022456,-0.00111230
 ,0.,0.00110036,0.00048736,0.,0.07097281,0.00003545,0.00002901,0.,-0.00
 002992,0.00001418,0.,0.00003870,-0.00000804,0.,-0.00011597,0.00002630,
 0.,0.00004354,0.00003328,0.,0.00001664,-0.00002040,0.,0.00004404,-0.00
 008028,0.,-0.00007794,0.00001451,0.,-0.00017376,0.00033554,0.,-0.00119
 269,-0.00074726,0.,-0.00073698,-0.00112854,0.,0.00022437,-0.00007302,0
 .,0.00000320,0.00014622,0.,-0.00034278,-0.00031985,0.,0.00161473,0.001
 33827,0.,-0.00029498,0.00079232,0.,-0.00398127,-0.00052232,0.,0.006864
 38,-0.01641873,0.,0.05568954,-0.32521197,0.,0.00123568,-0.00602039,0.,
 0.00000469,0.00000096,0.,0.00000643,-0.00000426,0.,-0.00000718,0.00000
 546,0.,0.00000776,0.00000691,0.,-0.00001950,0.00001772,0.,0.00003647,0
 .00002007,0.,-0.00176859,-0.00006152,0.,0.00011644,-0.00003644,0.,0.00
 004049,-0.00009348,0.,0.00033763,-0.00080099,0.,-0.00008057,0.00106981
 ,0.,-0.05753804,0.34769692,0.,0.,0.00000347,0.,0.,-0.00000346,0.,0.,-0
 .00000453,0.,0.,0.00003518,0.,0.,-0.00001117,0.,0.,-0.00000855,0.,0.,0
 .00018439,0.,0.,-0.00003525,0.,0.,-0.00026360,0.,0.,-0.00008558,0.,0.,
 -0.00335171,0.,0.,-0.00002906,0.,0.,-0.00022351,0.,0.,0.00030346,0.,0.
 ,0.00581670,0.,0.,-0.00050551,0.,0.,0.00747230,0.,0.,0.00462057,0.,0.,
 -0.03821492,0.,0.,0.00396967,0.,0.,0.00000195,0.,0.,-0.00000128,0.,0.,
 0.00000344,0.,0.,0.00000171,0.,0.,0.00005034,0.,0.,0.00002835,0.,0.,0.
 00091169,0.,0.,0.00000540,0.,0.,-0.00105548,0.,0.,0.00016320,0.,0.,-0.
 00470347,0.,0.,0.02492528\\-0.00001614,-0.00008272,0.,0.00007612,0.000
 05065,0.,-0.00012009,0.00007783,0.,0.00019464,0.00017722,0.,0.00001454
 ,-0.00019053,0.,0.00000857,0.00004024,0.,-0.00034574,-0.00009434,0.,0.
 00008894,-0.00004357,0.,-0.00004801,-0.00003409,0.,-0.00006239,0.00002
 165,0.,0.00032577,-0.00006131,0.,0.00006120,0.00038355,0.,-0.00014267,
 -0.00035674,0.,0.00023228,0.00005524,0.,-0.00018878,0.00020046,0.,0.00
 007220,-0.00004958,0.,-0.00001551,0.00008919,0.,0.00003137,-0.00008763
 ,0.,0.00008291,0.00005261,0.,-0.00019224,-0.00013742,0.,0.00001357,-0.
 00001829,0.,0.00001967,0.00000905,0.,-0.00000256,-0.00000331,0.,-0.000
 00400,-0.00000185,0.,0.00001359,-0.00001973,0.,-0.00002764,-0.00000662
 ,0.,-0.00000349,0.00000720,0.,0.00000173,0.00001463,0.,-0.00002039,0.0
 0001549,0.,-0.00002016,-0.00000251,0.,-0.00001563,-0.00000283,0.,-0.00
 001166,-0.00000192,0.\\\@
 The archive entry for this job was punched.


 EVANS BOLDLY PUT 50 ATM. OF ETHYLENE IN A CELL WITH 25 ATM. OF OXYGEN.
 THE APPARATUS SUBSEQUENTLY BLEW UP, BUT LUCKILY NOT BEFORE HE
 OBTAINED THE SPECTRA SHOWN IN FIGURE 8.
 A.J.MERER AND R.S.MULLIKEN, CHEM.REV. 69, 645 (1969)
 Job cpu time:       0 days  0 hours 58 minutes  8.6 seconds.
 Elapsed time:       0 days  0 hours  3 minutes 41.8 seconds.
 File lengths (MBytes):  RWF=    362 Int=      0 D2E=      0 Chk=      9 Scr=      1
 Normal termination of Gaussian 16 at Thu Jul 31 12:12:55 2025.
