 Entering Gaussian System, Link 0=g16
 Initial command:
 /opt/g16/l1.exe "/tmp/Gau-1133819.inp" -scrdir="/tmp/"
 Entering Link 1 = /opt/g16/l1.exe PID=   1133821.
  
 Copyright (c) 1988-2019, Gaussian, Inc.  All Rights Reserved.
  
 This is part of the Gaussian(R) 16 program.  It is based on
 the Gaussian(R) 09 system (copyright 2009, Gaussian, Inc.),
 the Gaussian(R) 03 system (copyright 2003, Gaussian, Inc.),
 the Gaussian(R) 98 system (copyright 1998, Gaussian, Inc.),
 the Gaussian(R) 94 system (copyright 1995, Gaussian, Inc.),
 the Gaussian 92(TM) system (copyright 1992, Gaussian, Inc.),
 the Gaussian 90(TM) system (copyright 1990, Gaussian, Inc.),
 the Gaussian 88(TM) system (copyright 1988, Gaussian, Inc.),
 the Gaussian 86(TM) system (copyright 1986, Carnegie Mellon
 University), and the Gaussian 82(TM) system (copyright 1983,
 Carnegie Mellon University). Gaussian is a federally registered
 trademark of Gaussian, Inc.
  
 This software contains proprietary and confidential information,
 including trade secrets, belonging to Gaussian, Inc.
  
 This software is provided under written license and may be
 used, copied, transmitted, or stored only in accord with that
 written license.
  
 The following legend is applicable only to US Government
 contracts under FAR:
  
                    RESTRICTED RIGHTS LEGEND
  
 Use, reproduction and disclosure by the US Government is
 subject to restrictions as set forth in subparagraphs (a)
 and (c) of the Commercial Computer Software - Restricted
 Rights clause in FAR 52.227-19.
  
 Gaussian, Inc.
 340 Quinnipiac St., Bldg. 40, Wallingford CT 06492
  
  
 ---------------------------------------------------------------
 Warning -- This program may not be used in any manner that
 competes with the business of Gaussian, Inc. or will provide
 assistance to any competitor of Gaussian, Inc.  The licensee
 of this program is prohibited from giving any competitor of
 Gaussian, Inc. access to this program.  By using this program,
 the user acknowledges that Gaussian, Inc. is engaged in the
 business of creating and licensing software in the field of
 computational chemistry and represents and warrants to the
 licensee that it is not a competitor of Gaussian, Inc. and that
 it will not use this program in any manner prohibited above.
 ---------------------------------------------------------------
  

 Cite this work as:
 Gaussian 16, Revision C.01,
 M. J. Frisch, G. W. Trucks, H. B. Schlegel, G. E. Scuseria, 
 M. A. Robb, J. R. Cheeseman, G. Scalmani, V. Barone, 
 G. A. Petersson, H. Nakatsuji, X. Li, M. Caricato, A. V. Marenich, 
 J. Bloino, B. G. Janesko, R. Gomperts, B. Mennucci, H. P. Hratchian, 
 J. V. Ortiz, A. F. Izmaylov, J. L. Sonnenberg, D. Williams-Young, 
 F. Ding, F. Lipparini, F. Egidi, J. Goings, B. Peng, A. Petrone, 
 T. Henderson, D. Ranasinghe, V. G. Zakrzewski, J. Gao, N. Rega, 
 G. Zheng, W. Liang, M. Hada, M. Ehara, K. Toyota, R. Fukuda, 
 J. Hasegawa, M. Ishida, T. Nakajima, Y. Honda, O. Kitao, H. Nakai, 
 T. Vreven, K. Throssell, J. A. Montgomery, Jr., J. E. Peralta, 
 F. Ogliaro, M. J. Bearpark, J. J. Heyd, E. N. Brothers, K. N. Kudin, 
 V. N. Staroverov, T. A. Keith, R. Kobayashi, J. Normand, 
 K. Raghavachari, A. P. Rendell, J. C. Burant, S. S. Iyengar, 
 J. Tomasi, M. Cossi, J. M. Millam, M. Klene, C. Adamo, R. Cammi, 
 J. W. Ochterski, R. L. Martin, K. Morokuma, O. Farkas, 
 J. B. Foresman, and D. J. Fox, Gaussian, Inc., Wallingford CT, 2019.
 
 ******************************************
 Gaussian 16:  ES64L-G16RevC.01  3-Jul-2019
                 8-Oct-2024 
 ******************************************
 %nprocshared=8
 Will use up to    8 processors via shared memory.
 %mem=10400MB
 ----------------------------------------------------------------------
 #N opt freq B3LYP/def2SVPP symm=veryloose em=gd3bj scale=0.961 press=0
 .987
 ----------------------------------------------------------------------
 1/18=20,19=15,26=3,38=1,113=-987000,114=961000/1,3;
 2/9=110,12=2,17=2,18=2,40=1/2;
 3/5=43,7=202,11=2,25=1,30=1,71=1,74=-5,124=41/1,2,3;
 4//1;
 5/5=2,38=5/2;
 6/7=2,8=2,9=2,10=2,28=1/1;
 7//1,2,3,16;
 1/18=20,19=15,26=3/3(2);
 2/9=110/2;
 99//99;
 2/9=110/2;
 3/5=43,7=202,11=2,25=1,30=1,71=1,74=-5,124=41/1,2,3;
 4/5=5,16=3,69=1/1;
 5/5=2,38=5/2;
 7//1,2,3,16;
 1/18=20,19=15,26=3/3(-5);
 2/9=110/2;
 6/7=2,8=2,9=2,10=2,19=2,28=1/1;
 99/9=1/99;
 ------------------------------------------
 c1ccc2cc3c(cc2c1)c1ccccc1c1cc2ccccc2cc13_2
 ------------------------------------------
 Symbolic Z-matrix:
 Charge =  0 Multiplicity = 1
 C                     5.4503    2.1473    0.8431 
 C                     4.6476    3.2782    0.7431 
 C                     3.2747    3.1375    0.5373 
 C                     2.6884    1.8629    0.4293 
 C                     1.3101    1.6893    0.2222 
 C                     0.6727    0.4184    0.1066 
 C                     1.4926   -0.7347    0.2089 
 C                     2.8888   -0.5341    0.419 
 C                     3.4941    0.728     0.5297 
 C                     4.8776    0.8794    0.7372 
 C                     0.9089   -2.0419    0.1006 
 C                     1.6802   -3.2372    0.195 
 C                     1.1323   -4.5148    0.0925 
 C                    -0.2217   -4.6489   -0.1103 
 C                    -1.0104   -3.5038   -0.208 
 C                    -0.4894   -2.1805   -0.1088 
 C                    -1.3189   -1.0133   -0.2122 
 C                    -2.7274   -1.0906   -0.4222 
 C                    -3.5693    0.0282   -0.5283 
 C                    -4.9555   -0.0949   -0.7357 
 C                    -5.7666    1.036    -0.837 
 C                    -5.2021    2.3023   -0.7323 
 C                    -3.8283    2.4338   -0.5266 
 C                    -3.0026    1.2991   -0.4232 
 C                    -1.617     1.3993   -0.2162 
 C                    -0.7419    0.2783   -0.1053 
 H                     6.5202    2.2497    1.0033 
 H                     5.0871    4.2687    0.8247 
 H                     2.6613    4.0326    0.4614 
 H                     0.7257    2.6016    0.1508 
 H                     3.5553   -1.3873    0.5036 
 H                     5.5198    0.0052    0.8178 
 H                     2.7535   -3.2044    0.3545 
 H                     1.7684   -5.3917    0.1722 
 H                    -0.6728   -5.6336   -0.1935 
 H                    -2.0692   -3.6823   -0.3679 
 H                    -3.213    -2.0578   -0.5102 
 H                    -5.4132   -1.078    -0.8198 
 H                    -6.8358    0.9264   -0.9972 
 H                    -5.828     3.1872   -0.8102 
 H                    -3.403     3.4317   -0.4469 
 H                    -1.2236    2.4085   -0.1411 
 

 GradGradGradGradGradGradGradGradGradGradGradGradGradGradGradGradGradGrad
 Berny optimization.
 Initialization pass.
                           ----------------------------
                           !    Initial Parameters    !
                           ! (Angstroms and Degrees)  !
 --------------------------                            --------------------------
 ! Name  Definition              Value          Derivative Info.                !
 --------------------------------------------------------------------------------
 ! R1    R(1,2)                  1.3904         estimate D2E/DX2                !
 ! R2    R(1,10)                 1.3953         estimate D2E/DX2                !
 ! R3    R(1,27)                 1.0867         estimate D2E/DX2                !
 ! R4    R(2,3)                  1.3954         estimate D2E/DX2                !
 ! R5    R(2,28)                 1.0867         estimate D2E/DX2                !
 ! R6    R(3,4)                  1.4071         estimate D2E/DX2                !
 ! R7    R(3,29)                 1.0878         estimate D2E/DX2                !
 ! R8    R(4,5)                  1.4045         estimate D2E/DX2                !
 ! R9    R(4,9)                  1.3954         estimate D2E/DX2                !
 ! R10   R(5,6)                  1.4265         estimate D2E/DX2                !
 ! R11   R(5,30)                 1.0858         estimate D2E/DX2                !
 ! R12   R(6,7)                  1.4186         estimate D2E/DX2                !
 ! R13   R(6,26)                 1.4372         estimate D2E/DX2                !
 ! R14   R(7,8)                  1.4261         estimate D2E/DX2                !
 ! R15   R(7,11)                 1.4357         estimate D2E/DX2                !
 ! R16   R(8,9)                  1.4041         estimate D2E/DX2                !
 ! R17   R(8,31)                 1.086          estimate D2E/DX2                !
 ! R18   R(9,10)                 1.4071         estimate D2E/DX2                !
 ! R19   R(10,32)                1.0877         estimate D2E/DX2                !
 ! R20   R(11,12)                1.4257         estimate D2E/DX2                !
 ! R21   R(11,16)                1.4207         estimate D2E/DX2                !
 ! R22   R(12,13)                1.3939         estimate D2E/DX2                !
 ! R23   R(12,33)                1.0856         estimate D2E/DX2                !
 ! R24   R(13,14)                1.3757         estimate D2E/DX2                !
 ! R25   R(13,34)                1.0862         estimate D2E/DX2                !
 ! R26   R(14,15)                1.3939         estimate D2E/DX2                !
 ! R27   R(14,35)                1.0863         estimate D2E/DX2                !
 ! R28   R(15,16)                1.4256         estimate D2E/DX2                !
 ! R29   R(15,36)                1.0856         estimate D2E/DX2                !
 ! R30   R(16,17)                1.4357         estimate D2E/DX2                !
 ! R31   R(17,18)                1.4262         estimate D2E/DX2                !
 ! R32   R(17,26)                1.4187         estimate D2E/DX2                !
 ! R33   R(18,19)                1.4042         estimate D2E/DX2                !
 ! R34   R(18,37)                1.0858         estimate D2E/DX2                !
 ! R35   R(19,20)                1.407          estimate D2E/DX2                !
 ! R36   R(19,24)                1.3955         estimate D2E/DX2                !
 ! R37   R(20,21)                1.3954         estimate D2E/DX2                !
 ! R38   R(20,38)                1.0877         estimate D2E/DX2                !
 ! R39   R(21,22)                1.3904         estimate D2E/DX2                !
 ! R40   R(21,39)                1.0867         estimate D2E/DX2                !
 ! R41   R(22,23)                1.3953         estimate D2E/DX2                !
 ! R42   R(22,40)                1.0867         estimate D2E/DX2                !
 ! R43   R(23,24)                1.4071         estimate D2E/DX2                !
 ! R44   R(23,41)                1.0877         estimate D2E/DX2                !
 ! R45   R(24,25)                1.4046         estimate D2E/DX2                !
 ! R46   R(25,26)                1.4264         estimate D2E/DX2                !
 ! R47   R(25,42)                1.0858         estimate D2E/DX2                !
 ! A1    A(2,1,10)             119.7809         estimate D2E/DX2                !
 ! A2    A(2,1,27)             120.1563         estimate D2E/DX2                !
 ! A3    A(10,1,27)            120.0627         estimate D2E/DX2                !
 ! A4    A(1,2,3)              119.7762         estimate D2E/DX2                !
 ! A5    A(1,2,28)             120.1634         estimate D2E/DX2                !
 ! A6    A(3,2,28)             120.0604         estimate D2E/DX2                !
 ! A7    A(2,3,4)              120.8383         estimate D2E/DX2                !
 ! A8    A(2,3,29)             118.8261         estimate D2E/DX2                !
 ! A9    A(4,3,29)             120.3355         estimate D2E/DX2                !
 ! A10   A(3,4,5)              122.1511         estimate D2E/DX2                !
 ! A11   A(3,4,9)              119.38           estimate D2E/DX2                !
 ! A12   A(5,4,9)              118.469          estimate D2E/DX2                !
 ! A13   A(4,5,6)              124.0942         estimate D2E/DX2                !
 ! A14   A(4,5,30)             115.723          estimate D2E/DX2                !
 ! A15   A(6,5,30)             120.1828         estimate D2E/DX2                !
 ! A16   A(5,6,7)              117.3938         estimate D2E/DX2                !
 ! A17   A(5,6,26)             122.5882         estimate D2E/DX2                !
 ! A18   A(7,6,26)             120.018          estimate D2E/DX2                !
 ! A19   A(6,7,8)              117.5255         estimate D2E/DX2                !
 ! A20   A(6,7,11)             119.9793         estimate D2E/DX2                !
 ! A21   A(8,7,11)             122.4951         estimate D2E/DX2                !
 ! A22   A(7,8,9)              124.063          estimate D2E/DX2                !
 ! A23   A(7,8,31)             120.1214         estimate D2E/DX2                !
 ! A24   A(9,8,31)             115.8156         estimate D2E/DX2                !
 ! A25   A(4,9,8)              118.4545         estimate D2E/DX2                !
 ! A26   A(4,9,10)             119.3923         estimate D2E/DX2                !
 ! A27   A(8,9,10)             122.1532         estimate D2E/DX2                !
 ! A28   A(1,10,9)             120.8323         estimate D2E/DX2                !
 ! A29   A(1,10,32)            118.8402         estimate D2E/DX2                !
 ! A30   A(9,10,32)            120.3275         estimate D2E/DX2                !
 ! A31   A(7,11,12)            122.5765         estimate D2E/DX2                !
 ! A32   A(7,11,16)            120.0072         estimate D2E/DX2                !
 ! A33   A(12,11,16)           117.4163         estimate D2E/DX2                !
 ! A34   A(11,12,13)           123.431          estimate D2E/DX2                !
 ! A35   A(11,12,33)           121.2841         estimate D2E/DX2                !
 ! A36   A(13,12,33)           115.2849         estimate D2E/DX2                !
 ! A37   A(12,13,14)           119.1482         estimate D2E/DX2                !
 ! A38   A(12,13,34)           120.2879         estimate D2E/DX2                !
 ! A39   A(14,13,34)           120.5639         estimate D2E/DX2                !
 ! A40   A(13,14,15)           119.1555         estimate D2E/DX2                !
 ! A41   A(13,14,35)           120.556          estimate D2E/DX2                !
 ! A42   A(15,14,35)           120.2885         estimate D2E/DX2                !
 ! A43   A(14,15,16)           123.4288         estimate D2E/DX2                !
 ! A44   A(14,15,36)           115.285          estimate D2E/DX2                !
 ! A45   A(16,15,36)           121.2862         estimate D2E/DX2                !
 ! A46   A(11,16,15)           117.4202         estimate D2E/DX2                !
 ! A47   A(11,16,17)           119.999          estimate D2E/DX2                !
 ! A48   A(15,16,17)           122.5808         estimate D2E/DX2                !
 ! A49   A(16,17,18)           122.4909         estimate D2E/DX2                !
 ! A50   A(16,17,26)           119.9846         estimate D2E/DX2                !
 ! A51   A(18,17,26)           117.5245         estimate D2E/DX2                !
 ! A52   A(17,18,19)           124.0609         estimate D2E/DX2                !
 ! A53   A(17,18,37)           120.1251         estimate D2E/DX2                !
 ! A54   A(19,18,37)           115.814          estimate D2E/DX2                !
 ! A55   A(18,19,20)           122.1486         estimate D2E/DX2                !
 ! A56   A(18,19,24)           118.454          estimate D2E/DX2                !
 ! A57   A(20,19,24)           119.3974         estimate D2E/DX2                !
 ! A58   A(19,20,21)           120.8283         estimate D2E/DX2                !
 ! A59   A(19,20,38)           120.3347         estimate D2E/DX2                !
 ! A60   A(21,20,38)           118.837          estimate D2E/DX2                !
 ! A61   A(20,21,22)           119.7799         estimate D2E/DX2                !
 ! A62   A(20,21,39)           120.0588         estimate D2E/DX2                !
 ! A63   A(22,21,39)           120.1613         estimate D2E/DX2                !
 ! A64   A(21,22,23)           119.7804         estimate D2E/DX2                !
 ! A65   A(21,22,40)           120.159          estimate D2E/DX2                !
 ! A66   A(23,22,40)           120.0606         estimate D2E/DX2                !
 ! A67   A(22,23,24)           120.8359         estimate D2E/DX2                !
 ! A68   A(22,23,41)           118.8326         estimate D2E/DX2                !
 ! A69   A(24,23,41)           120.3315         estimate D2E/DX2                !
 ! A70   A(19,24,23)           119.3781         estimate D2E/DX2                !
 ! A71   A(19,24,25)           118.4691         estimate D2E/DX2                !
 ! A72   A(23,24,25)           122.1529         estimate D2E/DX2                !
 ! A73   A(24,25,26)           124.0972         estimate D2E/DX2                !
 ! A74   A(24,25,42)           115.7177         estimate D2E/DX2                !
 ! A75   A(26,25,42)           120.1851         estimate D2E/DX2                !
 ! A76   A(6,26,17)            120.0118         estimate D2E/DX2                !
 ! A77   A(6,26,25)            122.5939         estimate D2E/DX2                !
 ! A78   A(17,26,25)           117.3943         estimate D2E/DX2                !
 ! D1    D(10,1,2,3)            -0.0098         estimate D2E/DX2                !
 ! D2    D(10,1,2,28)          179.9976         estimate D2E/DX2                !
 ! D3    D(27,1,2,3)           179.9965         estimate D2E/DX2                !
 ! D4    D(27,1,2,28)            0.0039         estimate D2E/DX2                !
 ! D5    D(2,1,10,9)             0.0076         estimate D2E/DX2                !
 ! D6    D(2,1,10,32)         -179.9949         estimate D2E/DX2                !
 ! D7    D(27,1,10,9)         -179.9987         estimate D2E/DX2                !
 ! D8    D(27,1,10,32)          -0.0011         estimate D2E/DX2                !
 ! D9    D(1,2,3,4)              0.0111         estimate D2E/DX2                !
 ! D10   D(1,2,3,29)          -180.0            estimate D2E/DX2                !
 ! D11   D(28,2,3,4)          -179.9963         estimate D2E/DX2                !
 ! D12   D(28,2,3,29)           -0.0073         estimate D2E/DX2                !
 ! D13   D(2,3,4,5)            179.9978         estimate D2E/DX2                !
 ! D14   D(2,3,4,9)             -0.01           estimate D2E/DX2                !
 ! D15   D(29,3,4,5)             0.0091         estimate D2E/DX2                !
 ! D16   D(29,3,4,9)          -179.9988         estimate D2E/DX2                !
 ! D17   D(3,4,5,6)            179.9957         estimate D2E/DX2                !
 ! D18   D(3,4,5,30)            -0.0039         estimate D2E/DX2                !
 ! D19   D(9,4,5,6)              0.0034         estimate D2E/DX2                !
 ! D20   D(9,4,5,30)          -179.9962         estimate D2E/DX2                !
 ! D21   D(3,4,9,8)           -179.9956         estimate D2E/DX2                !
 ! D22   D(3,4,9,10)             0.0076         estimate D2E/DX2                !
 ! D23   D(5,4,9,8)             -0.0032         estimate D2E/DX2                !
 ! D24   D(5,4,9,10)          -180.0            estimate D2E/DX2                !
 ! D25   D(4,5,6,7)              0.0011         estimate D2E/DX2                !
 ! D26   D(4,5,6,26)           179.999          estimate D2E/DX2                !
 ! D27   D(30,5,6,7)          -179.9993         estimate D2E/DX2                !
 ! D28   D(30,5,6,26)           -0.0013         estimate D2E/DX2                !
 ! D29   D(5,6,7,8)             -0.0056         estimate D2E/DX2                !
 ! D30   D(5,6,7,11)          -179.9976         estimate D2E/DX2                !
 ! D31   D(26,6,7,8)           179.9964         estimate D2E/DX2                !
 ! D32   D(26,6,7,11)            0.0044         estimate D2E/DX2                !
 ! D33   D(5,6,26,17)         -179.9955         estimate D2E/DX2                !
 ! D34   D(5,6,26,25)           -0.0031         estimate D2E/DX2                !
 ! D35   D(7,6,26,17)            0.0024         estimate D2E/DX2                !
 ! D36   D(7,6,26,25)          179.9947         estimate D2E/DX2                !
 ! D37   D(6,7,8,9)              0.0061         estimate D2E/DX2                !
 ! D38   D(6,7,8,31)           179.9973         estimate D2E/DX2                !
 ! D39   D(11,7,8,9)           179.9979         estimate D2E/DX2                !
 ! D40   D(11,7,8,31)           -0.0109         estimate D2E/DX2                !
 ! D41   D(6,7,11,12)         -179.9997         estimate D2E/DX2                !
 ! D42   D(6,7,11,16)           -0.0072         estimate D2E/DX2                !
 ! D43   D(8,7,11,12)            0.0087         estimate D2E/DX2                !
 ! D44   D(8,7,11,16)         -179.9988         estimate D2E/DX2                !
 ! D45   D(7,8,9,4)             -0.0015         estimate D2E/DX2                !
 ! D46   D(7,8,9,10)           179.9952         estimate D2E/DX2                !
 ! D47   D(31,8,9,4)          -179.9932         estimate D2E/DX2                !
 ! D48   D(31,8,9,10)            0.0035         estimate D2E/DX2                !
 ! D49   D(4,9,10,1)            -0.0065         estimate D2E/DX2                !
 ! D50   D(4,9,10,32)          179.996          estimate D2E/DX2                !
 ! D51   D(8,9,10,1)           179.9968         estimate D2E/DX2                !
 ! D52   D(8,9,10,32)           -0.0007         estimate D2E/DX2                !
 ! D53   D(7,11,12,13)         180.0            estimate D2E/DX2                !
 ! D54   D(7,11,12,33)          -0.0079         estimate D2E/DX2                !
 ! D55   D(16,11,12,13)          0.0073         estimate D2E/DX2                !
 ! D56   D(16,11,12,33)        179.9994         estimate D2E/DX2                !
 ! D57   D(7,11,16,15)        -179.9963         estimate D2E/DX2                !
 ! D58   D(7,11,16,17)           0.0032         estimate D2E/DX2                !
 ! D59   D(12,11,16,15)         -0.0034         estimate D2E/DX2                !
 ! D60   D(12,11,16,17)        179.9961         estimate D2E/DX2                !
 ! D61   D(11,12,13,14)         -0.0057         estimate D2E/DX2                !
 ! D62   D(11,12,13,34)       -179.998          estimate D2E/DX2                !
 ! D63   D(33,12,13,14)       -179.9983         estimate D2E/DX2                !
 ! D64   D(33,12,13,34)          0.0094         estimate D2E/DX2                !
 ! D65   D(12,13,14,15)          0.0002         estimate D2E/DX2                !
 ! D66   D(12,13,14,35)       -179.9958         estimate D2E/DX2                !
 ! D67   D(34,13,14,15)        179.9925         estimate D2E/DX2                !
 ! D68   D(34,13,14,35)         -0.0036         estimate D2E/DX2                !
 ! D69   D(13,14,15,16)          0.0036         estimate D2E/DX2                !
 ! D70   D(13,14,15,36)        179.9951         estimate D2E/DX2                !
 ! D71   D(35,14,15,16)        179.9996         estimate D2E/DX2                !
 ! D72   D(35,14,15,36)         -0.0088         estimate D2E/DX2                !
 ! D73   D(14,15,16,11)         -0.0018         estimate D2E/DX2                !
 ! D74   D(14,15,16,17)        179.9987         estimate D2E/DX2                !
 ! D75   D(36,15,16,11)       -179.9929         estimate D2E/DX2                !
 ! D76   D(36,15,16,17)          0.0077         estimate D2E/DX2                !
 ! D77   D(11,16,17,18)        179.9948         estimate D2E/DX2                !
 ! D78   D(11,16,17,26)          0.0036         estimate D2E/DX2                !
 ! D79   D(15,16,17,18)         -0.0058         estimate D2E/DX2                !
 ! D80   D(15,16,17,26)       -179.997          estimate D2E/DX2                !
 ! D81   D(16,17,18,19)       -179.9974         estimate D2E/DX2                !
 ! D82   D(16,17,18,37)          0.0075         estimate D2E/DX2                !
 ! D83   D(26,17,18,19)         -0.006          estimate D2E/DX2                !
 ! D84   D(26,17,18,37)        179.9989         estimate D2E/DX2                !
 ! D85   D(16,17,26,6)          -0.0064         estimate D2E/DX2                !
 ! D86   D(16,17,26,25)       -179.9991         estimate D2E/DX2                !
 ! D87   D(18,17,26,6)        -179.998          estimate D2E/DX2                !
 ! D88   D(18,17,26,25)          0.0092         estimate D2E/DX2                !
 ! D89   D(17,18,19,20)       -179.9972         estimate D2E/DX2                !
 ! D90   D(17,18,19,24)          0.0029         estimate D2E/DX2                !
 ! D91   D(37,18,19,20)         -0.0019         estimate D2E/DX2                !
 ! D92   D(37,18,19,24)        179.9981         estimate D2E/DX2                !
 ! D93   D(18,19,20,21)        179.9983         estimate D2E/DX2                !
 ! D94   D(18,19,20,38)          0.0039         estimate D2E/DX2                !
 ! D95   D(24,19,20,21)         -0.0017         estimate D2E/DX2                !
 ! D96   D(24,19,20,38)       -179.9962         estimate D2E/DX2                !
 ! D97   D(18,19,24,23)       -179.9984         estimate D2E/DX2                !
 ! D98   D(18,19,24,25)         -0.0033         estimate D2E/DX2                !
 ! D99   D(20,19,24,23)          0.0017         estimate D2E/DX2                !
 ! D100  D(20,19,24,25)        179.9968         estimate D2E/DX2                !
 ! D101  D(19,20,21,22)          0.0016         estimate D2E/DX2                !
 ! D102  D(19,20,21,39)       -179.9991         estimate D2E/DX2                !
 ! D103  D(38,20,21,22)        179.9961         estimate D2E/DX2                !
 ! D104  D(38,20,21,39)         -0.0046         estimate D2E/DX2                !
 ! D105  D(20,21,22,23)         -0.0015         estimate D2E/DX2                !
 ! D106  D(20,21,22,40)       -179.996          estimate D2E/DX2                !
 ! D107  D(39,21,22,23)        179.9992         estimate D2E/DX2                !
 ! D108  D(39,21,22,40)          0.0047         estimate D2E/DX2                !
 ! D109  D(21,22,23,24)          0.0015         estimate D2E/DX2                !
 ! D110  D(21,22,23,41)       -179.9948         estimate D2E/DX2                !
 ! D111  D(40,22,23,24)        179.996          estimate D2E/DX2                !
 ! D112  D(40,22,23,41)         -0.0002         estimate D2E/DX2                !
 ! D113  D(22,23,24,19)         -0.0016         estimate D2E/DX2                !
 ! D114  D(22,23,24,25)       -179.9965         estimate D2E/DX2                !
 ! D115  D(41,23,24,19)        179.9946         estimate D2E/DX2                !
 ! D116  D(41,23,24,25)         -0.0003         estimate D2E/DX2                !
 ! D117  D(19,24,25,26)          0.0074         estimate D2E/DX2                !
 ! D118  D(19,24,25,42)       -179.9982         estimate D2E/DX2                !
 ! D119  D(23,24,25,26)       -179.9976         estimate D2E/DX2                !
 ! D120  D(23,24,25,42)         -0.0033         estimate D2E/DX2                !
 ! D121  D(24,25,26,6)         179.9969         estimate D2E/DX2                !
 ! D122  D(24,25,26,17)         -0.0105         estimate D2E/DX2                !
 ! D123  D(42,25,26,6)           0.0028         estimate D2E/DX2                !
 ! D124  D(42,25,26,17)        179.9954         estimate D2E/DX2                !
 --------------------------------------------------------------------------------
 Trust Radius=3.00D-01 FncErr=1.00D-07 GrdErr=1.00D-06 EigMax=2.50D+02 EigMin=1.00D-04
 Number of steps in this run=    252 maximum allowed number of steps=    252.
 GradGradGradGradGradGradGradGradGradGradGradGradGradGradGradGradGradGrad

                          Input orientation:                          
 ---------------------------------------------------------------------
 Center     Atomic      Atomic             Coordinates (Angstroms)
 Number     Number       Type             X           Y           Z
 ---------------------------------------------------------------------
      1          6           0        5.450300    2.147300    0.843100
      2          6           0        4.647600    3.278200    0.743100
      3          6           0        3.274700    3.137500    0.537300
      4          6           0        2.688400    1.862900    0.429300
      5          6           0        1.310100    1.689300    0.222200
      6          6           0        0.672700    0.418400    0.106600
      7          6           0        1.492600   -0.734700    0.208900
      8          6           0        2.888800   -0.534100    0.419000
      9          6           0        3.494100    0.728000    0.529700
     10          6           0        4.877600    0.879400    0.737200
     11          6           0        0.908900   -2.041900    0.100600
     12          6           0        1.680200   -3.237200    0.195000
     13          6           0        1.132300   -4.514800    0.092500
     14          6           0       -0.221700   -4.648900   -0.110300
     15          6           0       -1.010400   -3.503800   -0.208000
     16          6           0       -0.489400   -2.180500   -0.108800
     17          6           0       -1.318900   -1.013300   -0.212200
     18          6           0       -2.727400   -1.090600   -0.422200
     19          6           0       -3.569300    0.028200   -0.528300
     20          6           0       -4.955500   -0.094900   -0.735700
     21          6           0       -5.766600    1.036000   -0.837000
     22          6           0       -5.202100    2.302300   -0.732300
     23          6           0       -3.828300    2.433800   -0.526600
     24          6           0       -3.002600    1.299100   -0.423200
     25          6           0       -1.617000    1.399300   -0.216200
     26          6           0       -0.741900    0.278300   -0.105300
     27          1           0        6.520200    2.249700    1.003300
     28          1           0        5.087100    4.268700    0.824700
     29          1           0        2.661300    4.032600    0.461400
     30          1           0        0.725700    2.601600    0.150800
     31          1           0        3.555300   -1.387300    0.503600
     32          1           0        5.519800    0.005200    0.817800
     33          1           0        2.753500   -3.204400    0.354500
     34          1           0        1.768400   -5.391700    0.172200
     35          1           0       -0.672800   -5.633600   -0.193500
     36          1           0       -2.069200   -3.682300   -0.367900
     37          1           0       -3.213000   -2.057800   -0.510200
     38          1           0       -5.413200   -1.078000   -0.819800
     39          1           0       -6.835800    0.926400   -0.997200
     40          1           0       -5.828000    3.187200   -0.810200
     41          1           0       -3.403000    3.431700   -0.446900
     42          1           0       -1.223600    2.408500   -0.141100
 ---------------------------------------------------------------------
                    Distance matrix (angstroms):
                    1          2          3          4          5
     1  C    0.000000
     2  C    1.390418   0.000000
     3  C    2.409823   1.395351   0.000000
     4  C    2.807170   2.437213   1.407131   0.000000
     5  C    4.211477   3.732941   2.460940   1.404542   0.000000
     6  C    5.133906   4.937957   3.788062   2.500752   1.426474
     7  C    4.936752   5.132520   4.275238   2.868107   2.430897
     8  C    3.732432   4.210944   3.693719   2.405385   2.733959
     9  C    2.437078   2.807066   2.419480   1.395432   2.405932
    10  C    1.395267   2.409808   2.776376   2.419643   3.694350
    11  C    6.222943   6.534076   5.710858   4.303734   3.754677
    12  C    6.605038   7.180273   6.580000   5.204074   4.940457
    13  C    7.974466   8.573883   7.958984   6.573427   6.208002
    14  C    8.903308   9.342231   8.559920   7.152859   6.529146
    15  C    8.647565   8.883303   7.938792   6.548950   5.704216
    16  C    7.410533   7.543998   6.547291   5.170788   4.280551
    17  C    7.544874   7.411389   6.236349   4.974184   3.795312
    18  C    8.885930   8.650720   7.404234   6.227287   4.944138
    19  C    9.366136   8.927284   7.592337   6.591049   5.208747
    20  C   10.761075  10.285144   8.933372   7.976178   6.584731
    21  C   11.396340  10.769389   9.383502   8.589197   7.185290
    22  C   10.769380  10.007286   8.611944   7.987639   6.610264
    23  C    9.383527   8.611970   7.216626   6.611131   5.245773
    24  C    8.589207   7.987656   6.611110   5.782050   4.378148
    25  C    7.185287   6.610275   5.245744   4.378135   2.973921
    26  C    6.537275   6.226226   4.972025   3.816243   2.511749
    27  H    1.086663   2.152242   3.396854   3.893813   5.298048
    28  H    2.152345   1.086696   2.155692   3.420230   4.613246
    29  H    3.388004   2.143330   1.087761   2.170107   2.715513
    30  H    4.796615   4.023668   2.633244   2.115522   1.085777
    31  H    4.024883   4.797642   4.533617   3.364645   3.819107
    32  H    2.143376   3.388044   3.863995   3.408637   4.573019
    33  H    6.012666   6.764815   6.365906   5.068270   5.103842
    34  H    8.416829   9.153299   8.668881   7.317221   7.095992
    35  H    9.955365  10.421327   9.646192   8.239118   7.597997
    36  H    9.591331   9.736441   8.711276   7.349798   6.373537
    37  H    9.724559   9.582937   8.377270   7.147102   5.919088
    38  H   11.453533  11.074242   9.751501   8.708907   7.344826
    39  H   12.483011  11.850236  10.462594   9.675863   8.271919
    40  H   11.446172  10.590525   9.202031   8.707422   7.366276
    41  H    9.038512   8.139522   6.756248   6.350907   5.069217
    42  H    6.751134   6.000765   4.607209   3.990837   2.658735
                    6          7          8          9         10
     6  C    0.000000
     7  C    1.418570   0.000000
     8  C    2.432272   1.426098   0.000000
     9  C    2.869697   2.499681   1.404115   0.000000
    10  C    4.276840   3.787168   2.460601   1.407143   0.000000
    11  C    2.471619   1.435690   2.508953   3.813100   4.968886
    12  C    3.792925   2.509560   2.969451   4.373222   5.240586
    13  C    4.954583   3.799016   4.363240   5.766818   6.598508
    14  C    5.150197   4.285052   5.185263   6.567178   7.568568
    15  C    4.279656   3.755893   4.941256   6.224376   7.400972
    16  C    2.855023   2.473782   3.794923   4.973462   6.235655
    17  C    2.473433   2.856480   4.281680   5.171800   6.548304
    18  C    3.757312   4.281746   5.706050   6.551373   7.941104
    19  C    4.306962   5.171877   6.551383   7.176399   8.583481
    20  C    5.713981   6.548252   7.940987   8.583364   9.990423
    21  C    6.537308   7.544884   8.885871   9.366072  10.761116
    22  C    6.226243   7.411358   8.650625   8.927203  10.285156
    23  C    4.972100   6.236371   7.404190   7.592303   8.933423
    24  C    3.816301   4.974205   6.227240   6.591000   7.976229
    25  C    2.511790   3.795297   4.944062   5.208681   6.584762
    26  C    1.437227   2.473435   3.757242   4.306873   5.714010
    27  H    6.192817   5.900379   4.612810   3.420110   2.155613
    28  H    5.901475   6.191418   5.297547   3.893742   3.396896
    29  H    4.140393   4.914953   4.572560   3.408607   3.864029
    30  H    2.184290   3.423800   3.818841   3.364221   4.533002
    31  H    3.424550   2.183453   1.085969   2.116346   2.634573
    32  H    4.916393   4.139632   2.715151   2.170000   1.087724
    33  H    4.185196   2.776776   2.674503   4.005366   4.619056
    34  H    5.912878   4.665304   4.991241   6.368404   7.022325
    35  H    6.207023   5.371229   6.250204   7.639112   8.607689
    36  H    4.955694   4.659127   5.925550   7.155888   8.383817
    37  H    4.648728   4.940685   6.357440   7.336707   8.697181
    38  H    6.335267   6.990433   8.411519   9.188187  10.590384
    39  H    7.606182   8.577656   9.935116  10.444023  11.841203
    40  H    7.125018   8.367261   9.557280   9.733681  11.060301
    41  H    5.098791   6.461878   7.487596   7.472197   8.745551
    42  H    2.760037   4.168927   5.087675   5.052796   6.350921
                   11         12         13         14         15
    11  C    0.000000
    12  C    1.425678   0.000000
    13  C    2.482984   1.393902   0.000000
    14  C    2.849418   2.388164   1.375655   0.000000
    15  C    2.432303   2.733645   2.388218   1.393860   0.000000
    16  C    1.420669   2.432298   2.849454   2.482874   1.425624
    17  C    2.473652   3.755815   4.285058   3.798923   2.509538
    18  C    3.794861   4.941231   5.185301   4.363177   2.969428
    19  C    4.973440   6.224408   6.567289   5.766837   4.373281
    20  C    6.235495   7.400863   7.568536   6.598402   5.240504
    21  C    7.410456   8.647548   8.903380   7.974465   6.605063
    22  C    7.543879   8.883243   9.342257   8.573824   7.180253
    23  C    6.547239   7.938798   8.560016   7.958989   6.580058
    24  C    5.170733   6.548954   7.152956   6.573433   5.204135
    25  C    4.280466   5.704187   6.529206   6.207963   4.940488
    26  C    2.854972   4.279660   5.150297   4.954587   3.793009
    27  H    7.121754   7.361048   8.695831   9.709995   9.554054
    28  H    7.602983   8.266924   9.660561  10.420229   9.932660
    29  H    6.332506   7.340539   8.690913   9.165532   8.409923
    30  H    4.647384   5.916469   7.128245   7.316795   6.357569
    31  H    2.755784   2.652049   3.977586   5.027985   5.082476
    32  H    5.095625   5.063948   6.340869   7.448949   7.483907
    33  H    2.195090   1.085582   2.100972   3.339825   3.817459
    34  H    3.459050   2.156425   1.086245   2.142908   3.380895
    35  H    3.935553   3.380869   2.142871   1.086300   2.156440
    36  H    3.432125   3.817456   3.339854   2.100935   1.085582
    37  H    4.166940   5.082489   5.028094   3.977637   2.652110
    38  H    6.461052   7.483868   7.448990   6.340851   5.063936
    39  H    8.366382   9.554013   9.710032   8.695797   7.361032
    40  H    8.576646   9.932593  10.420242   9.660483   8.266885
    41  H    6.989459   8.409827   9.165520   8.690804   7.340488
    42  H    4.940854   6.357590   7.316893   7.128229   5.916521
                   16         17         18         19         20
    16  C    0.000000
    17  C    1.435659   0.000000
    18  C    2.508933   1.426165   0.000000
    19  C    3.813151   2.499788   1.404196   0.000000
    20  C    4.968781   3.787132   2.460514   1.407025   0.000000
    21  C    6.222940   4.936805   3.732455   2.437024   1.395378
    22  C    6.534048   5.132538   4.210947   2.806988   2.409853
    23  C    5.710917   4.275329   3.693816   2.419503   2.776441
    24  C    4.303793   2.868198   2.405494   1.395486   2.419651
    25  C    3.754728   2.430950   2.734049   2.405992   3.694333
    26  C    2.471733   1.418657   2.432390   2.869786   4.276810
    27  H    8.366477   8.577651   9.935178  10.444083  11.841155
    28  H    8.576768   8.367289   9.557367   9.733741  11.060274
    29  H    6.989610   6.461953   7.487724   7.472289   8.745567
    30  H    4.940885   4.168892   5.087688   5.052780   6.350829
    31  H    4.166989   4.940655   6.357472   7.336783   8.697119
    32  H    6.461142   6.990426   8.411580   9.188267  10.590340
    33  H    3.432116   4.659025   5.925511   7.155895   8.383687
    34  H    3.935534   5.371180   6.250199   7.639179   8.607625
    35  H    3.459004   4.665294   4.991246   6.368499   7.022300
    36  H    2.195064   2.776824   2.674525   4.005476   4.619031
    37  H    2.755753   2.183437   1.085830   2.116288   2.634413
    38  H    5.095570   4.139644   2.715100   2.169935   1.087680
    39  H    7.121719   5.900411   4.612794   3.420037   2.155682
    40  H    7.602948   6.191429   5.297531   3.893645   3.396908
    41  H    6.332469   4.914935   4.572553   3.408533   3.864009
    42  H    4.647474   3.423865   3.818918   3.364233   4.532950
                   21         22         23         24         25
    21  C    0.000000
    22  C    1.390373   0.000000
    23  C    2.409813   1.395325   0.000000
    24  C    2.807160   2.437161   1.407130   0.000000
    25  C    4.211480   3.732922   2.460973   1.404556   0.000000
    26  C    5.133917   4.937924   3.788079   2.500771   1.426443
    27  H   12.482997  11.850206  10.462597   9.675860   8.271903
    28  H   11.446152  10.590496   9.202023   8.707412   7.366267
    29  H    9.038526   8.139528   6.756272   6.350929   5.069247
    30  H    6.751060   6.000688   4.607162   3.990765   2.658657
    31  H    9.724578   9.582935   8.377330   7.147150   5.919116
    32  H   11.453547  11.074232   9.751537   8.708936   7.344834
    33  H    9.591286   9.736347   8.711241   7.349763   6.373462
    34  H    9.955402  10.421306   9.646234   8.239159   7.597991
    35  H    8.416915   9.153326   8.668972   7.317312   7.096035
    36  H    6.012751   6.764857   6.366027   5.068396   5.103935
    37  H    4.024832   4.797533   4.533578   3.364612   3.819056
    38  H    2.143405   3.388015   3.864015   3.408649   4.573017
    39  H    1.086676   2.152266   3.396877   3.893816   5.298063
    40  H    2.152243   1.086677   2.155653   3.420172   4.613236
    41  H    3.387944   2.143305   1.087675   2.169992   2.715450
    42  H    4.796549   4.023588   2.633194   2.115464   1.085766
                   26         27         28         29         30
    26  C    0.000000
    27  H    7.606149   0.000000
    28  H    7.124987   2.482345   0.000000
    29  H    5.098793   4.285265   2.464191   0.000000
    30  H    2.759920   5.867437   4.717539   2.427093   0.000000
    31  H    4.648754   4.718909   5.868548   5.493299   4.903308
    32  H    6.335265   2.464344   4.285407   4.951565   5.492684
    33  H    4.955647   6.660043   7.843086   7.238377   6.153300
    34  H    6.207053   9.036666  10.235373   9.470921   8.061050
    35  H    5.912962  10.738622  11.500814  10.246001   8.360195
    36  H    4.185336  10.528371  10.763518   9.087632   6.896950
    37  H    3.424565  10.750833  10.521322   8.517299   6.136798
    38  H    4.916412  12.522113  11.897390   9.641434   7.222715
    39  H    6.192829  13.569667  12.515823  10.098064   7.829462
    40  H    5.901440  12.515819  11.089723   8.625537   6.649619
    41  H    4.140299  10.098025   8.625505   6.161317   4.253525
    42  H    2.184278   7.829515   6.649665   4.253605   1.980471
                   31         32         33         34         35
    31  H    0.000000
    32  H    2.428382   0.000000
    33  H    1.991724   4.262463   0.000000
    34  H    4.397506   6.604266   2.405813   0.000000
    35  H    6.032731   8.436059   4.235664   2.480264   0.000000
    36  H    6.136900   8.520356   4.899866   4.235674   2.405810
    37  H    6.876572   9.070907   6.136898   6.032819   4.397643
    38  H    9.070890  11.107905   8.520302   8.436080   6.604327
    39  H   10.750840  12.522128  10.528308  10.738628   9.036709
    40  H   10.521333  11.897398  10.763420  11.500779  10.235376
    41  H    8.517285   9.641407   9.087495  10.245928   9.470896
    42  H    6.136906   7.222796   6.896926   8.360224   8.061110
                   36         37         38         39         40
    36  H    0.000000
    37  H    1.991865   0.000000
    38  H    4.262503   2.428320   0.000000
    39  H    6.660076   4.718824   2.464322   0.000000
    40  H    7.843101   5.868411   4.285333   2.482307   0.000000
    41  H    7.238388   5.493152   4.951500   4.285262   2.464222
    42  H    6.153399   4.903242   5.492637   5.867394   4.717475
                   41         42
    41  H    0.000000
    42  H    2.426981   0.000000
 Stoichiometry    C26H16
 Framework group  C2V[SGV(C26H16)]
 Deg. of freedom    41
 Full point group                 C2V     NOp   4
 Largest Abelian subgroup         C2V     NOp   4
 Largest concise Abelian subgroup C2      NOp   2
                         Standard orientation:                         
 ---------------------------------------------------------------------
 Center     Atomic      Atomic             Coordinates (Angstroms)
 Number     Number       Type             X           Y           Z
 ---------------------------------------------------------------------
      1          6           0       -0.000000    5.698179   -1.619230
      2          6           0       -0.000000    5.003660   -2.823766
      3          6           0       -0.000000    3.608317   -2.819114
      4          6           0       -0.000000    2.891029   -1.608529
      5          6           0       -0.000000    1.486971   -1.571670
      6          6           0       -0.000000    0.718628   -0.369806
      7          6           0        0.000000    1.428251    0.858517
      8          6           0        0.000000    2.853002    0.796555
      9          6           0       -0.000000    3.588170   -0.399718
     10          6           0       -0.000000    4.995240   -0.413972
     11          6           0        0.000000    0.710299    2.101800
     12          6           0        0.000000    1.366806    3.367325
     13          6           0        0.000000    0.687832    4.584682
     14          6           0       -0.000000   -0.687832    4.584682
     15          6           0       -0.000000   -1.366806    3.367325
     16          6           0       -0.000000   -0.710299    2.101800
     17          6           0       -0.000000   -1.428251    0.858517
     18          6           0       -0.000000   -2.853002    0.796555
     19          6           0       -0.000000   -3.588170   -0.399718
     20          6           0       -0.000000   -4.995240   -0.413972
     21          6           0       -0.000000   -5.698179   -1.619230
     22          6           0       -0.000000   -5.003660   -2.823766
     23          6           0       -0.000000   -3.608317   -2.819114
     24          6           0       -0.000000   -2.891029   -1.608529
     25          6           0       -0.000000   -1.486971   -1.571670
     26          6           0       -0.000000   -0.718628   -0.369806
     27          1           0       -0.000000    6.784836   -1.615643
     28          1           0       -0.000000    5.544862   -3.766108
     29          1           0       -0.000000    3.080675   -3.770333
     30          1           0       -0.000000    0.990213   -2.537147
     31          1           0        0.000000    3.438277    1.711314
     32          1           0        0.000000    5.553960    0.519289
     33          1           0        0.000000    2.449919    3.440509
     34          1           0        0.000000    1.240152    5.520028
     35          1           0       -0.000000   -1.240152    5.520028
     36          1           0       -0.000000   -2.449919    3.440509
     37          1           0       -0.000000   -3.438277    1.711314
     38          1           0       -0.000000   -5.553960    0.519289
     39          1           0       -0.000000   -6.784836   -1.615643
     40          1           0       -0.000000   -5.544862   -3.766108
     41          1           0       -0.000000   -3.080675   -3.770333
     42          1           0       -0.000000   -0.990213   -2.537147
 ---------------------------------------------------------------------
 Rotational constants (GHZ):           0.3043762           0.1462236           0.0987727
 Standard basis: def2SVPP (5D, 7F)
 There are   159 symmetry adapted cartesian basis functions of A1  symmetry.
 There are    52 symmetry adapted cartesian basis functions of A2  symmetry.
 There are    52 symmetry adapted cartesian basis functions of B1  symmetry.
 There are   159 symmetry adapted cartesian basis functions of B2  symmetry.
 There are   146 symmetry adapted basis functions of A1  symmetry.
 There are    52 symmetry adapted basis functions of A2  symmetry.
 There are    52 symmetry adapted basis functions of B1  symmetry.
 There are   146 symmetry adapted basis functions of B2  symmetry.
   396 basis functions,   714 primitive gaussians,   422 cartesian basis functions
    86 alpha electrons       86 beta electrons
       nuclear repulsion energy      1992.4679501623 Hartrees.
 NAtoms=   42 NActive=   42 NUniq=   21 SFac= 4.00D+00 NAtFMM=   60 NAOKFM=F Big=F
 Integral buffers will be    131072 words long.
 Raffenetti 2 integral format.
 Two-electron integral symmetry is turned on.
 Nuclear repulsion after empirical dispersion term =     1992.3573899319 Hartrees.
 One-electron integrals computed using PRISM.
   4 Symmetry operations used in ECPInt.
 ECPInt:  NShTT=   17766 NPrTT=   71262 LenC2=   15605 LenP2D=   41558.
 LDataN:  DoStor=T MaxTD1= 4 Len=   56
 NBasis=   396 RedAO= T EigKep=  1.31D-04  NBF=   146    52    52   146
 NBsUse=   396 1.00D-06 EigRej= -1.00D+00 NBFU=   146    52    52   146
 ExpMin= 1.22D-01 ExpMax= 1.24D+03 ExpMxC= 1.86D+02 IAcc=3 IRadAn=         5 AccDes= 0.00D+00
 Harris functional with IExCor=  402 and IRadAn=       5 diagonalized for initial guess.
 HarFok:  IExCor=  402 AccDes= 0.00D+00 IRadAn=         5 IDoV= 1 UseB2=F ITyADJ=14
 ICtDFT=  3500011 ScaDFX=  1.000000  1.000000  1.000000  1.000000
 FoFCou: FMM=F IPFlag=           0 FMFlag=      100000 FMFlg1=           0
         NFxFlg=           0 DoJE=T BraDBF=F KetDBF=T FulRan=T
         wScrn=  0.000000 ICntrl=       500 IOpCl=  0 I1Cent=   200000004 NGrid=           0
         NMat0=    1 NMatS0=      1 NMatT0=    0 NMatD0=    1 NMtDS0=    0 NMtDT0=    0
 Petite list used in FoFCou.
 Initial guess orbital symmetries:
       Occupied  (A1) (B2) (B2) (A1) (B2) (A1) (B2) (A1) (B2) (A1)
                 (B2) (A1) (B2) (A1) (B2) (A1) (B2) (A1) (B2) (A1)
                 (B2) (A1) (A1) (B2) (B2) (A1) (A1) (B2) (A1) (A1)
                 (B2) (A1) (A1) (B2) (B2) (A1) (B2) (A1) (B2) (A1)
                 (B2) (A1) (A1) (B2) (B2) (A1) (B2) (A1) (A1) (A1)
                 (B2) (B2) (A1) (B2) (A1) (A1) (B2) (A1) (B2) (A1)
                 (B2) (B2) (A1) (A1) (B2) (B1) (B2) (A1) (A2) (B2)
                 (A1) (B1) (B2) (A1) (A1) (B2) (B1) (A2) (B1) (A2)
                 (B1) (A2) (B1) (A2) (B1) (A2)
       Virtual   (B1) (A2) (B1) (A2) (B1) (A2) (B1) (A2) (B1) (A2)
                 (A1) (A1) (B2) (A1) (B2) (A2) (A1) (B2) (B1) (A1)
                 (B2) (A1) (B2) (A1) (B2) (A2) (A1) (B2) (A1) (B2)
                 (A1) (B2) (B2) (A1) (B2) (A1) (B2) (A1) (A1) (B2)
                 (B2) (A1) (A1) (B2) (A1) (B2) (A1) (A1) (B2) (A1)
                 (A1) (B2) (B2) (B2) (B2) (A1) (B2) (B2) (A1) (A1)
                 (A1) (A1) (B2) (A1) (B2) (B1) (A1) (A1) (B2) (A2)
                 (B1) (B2) (A1) (B2) (B2) (A1) (B1) (A2) (A1) (B2)
                 (B1) (B2) (A1) (A1) (A2) (B1) (B2) (A1) (A2) (B2)
                 (B1) (A2) (B1) (A2) (B2) (B1) (A2) (B1) (B2) (A1)
                 (A1) (B2) (A1) (A1) (B2) (B1) (B2) (A1) (A1) (B2)
                 (A2) (B2) (A1) (B2) (A2) (B1) (A1) (B2) (A2) (A1)
                 (B2) (A1) (B2) (B2) (B1) (B2) (A1) (B2) (A1) (A2)
                 (A1) (B2) (A1) (B1) (A2) (A1) (B2) (A1) (B2) (A1)
                 (B2) (A1) (B2) (A2) (A1) (B2) (B2) (A1) (B2) (B2)
                 (A1) (A1) (B2) (B2) (A1) (A1) (B2) (A1) (B2) (B1)
                 (A1) (B1) (A2) (B1) (A2) (B2) (B1) (B2) (A1) (A1)
                 (B2) (A1) (B1) (A2) (B2) (A1) (A1) (A2) (B2) (B1)
                 (B1) (B2) (A2) (B1) (B2) (B1) (B2) (A2) (A1) (B1)
                 (B1) (A2) (B1) (A2) (A2) (B2) (A1) (A1) (B2) (B2)
                 (A1) (A1) (A1) (B2) (A1) (B2) (A1) (A2) (B2) (B2)
                 (A1) (A2) (B1) (A1) (A1) (B2) (A1) (B2) (A1) (B2)
                 (B1) (A2) (A1) (B2) (A1) (B2) (A1) (B2) (B1) (A2)
                 (A1) (B2) (A1) (B2) (B1) (A1) (A1) (A1) (B2) (B2)
                 (A2) (B1) (A1) (B2) (B2) (B1) (A2) (B2) (B2) (A1)
                 (A2) (A1) (A2) (B1) (A1) (B2) (B1) (A2) (B1) (A2)
                 (B2) (B1) (B1) (A2) (A2) (A1) (B1) (A2) (B2) (A1)
                 (A1) (B2) (B2) (B2) (A1) (A1) (A2) (B2) (B1) (A1)
                 (A2) (B2) (A1) (A1) (B1) (A2) (A1) (B2) (B2) (B2)
                 (A2) (B2) (A1) (A1) (A1) (B2) (B2) (A1) (B2) (B2)
                 (A1) (B2) (A1) (B2) (B2) (A1) (B2) (A1) (B2) (B2)
 The electronic state of the initial guess is 1-A1.
 Requested convergence on RMS density matrix=1.00D-08 within 128 cycles.
 Requested convergence on MAX density matrix=1.00D-06.
 Requested convergence on             energy=1.00D-06.
 No special actions if energy rises.
 Integral accuracy reduced to 1.0D-05 until final iterations.
 Initial convergence to 1.0D-05 achieved.  Increase integral accuracy.
 SCF Done:  E(RB3LYP) =  -999.811347319     A.U. after   15 cycles
            NFock= 15  Conv=0.30D-08     -V/T= 2.0106

 **********************************************************************

            Population analysis using the SCF Density.

 **********************************************************************

 Orbital symmetries:
       Occupied  (A1) (B2) (A1) (B2) (A1) (B2) (B2) (A1) (B2) (A1)
                 (B2) (A1) (B2) (A1) (B2) (A1) (B2) (A1) (B2) (A1)
                 (B2) (A1) (B2) (A1) (A1) (B2) (A1) (B2) (A1) (A1)
                 (B2) (A1) (A1) (B2) (B2) (A1) (B2) (A1) (B2) (A1)
                 (B2) (A1) (A1) (B2) (B2) (A1) (B2) (A1) (A1) (A1)
                 (B2) (B2) (A1) (B2) (A1) (A1) (B2) (A1) (B2) (B2)
                 (A1) (B1) (A1) (B2) (A1) (B2) (A2) (A1) (B2) (B1)
                 (B2) (A1) (B2) (B1) (A1) (A2) (B2) (A1) (B1) (A2)
                 (B1) (A2) (B1) (A2) (B1) (A2)
       Virtual   (B1) (A2) (B1) (A2) (B1) (B1) (A2) (A2) (A1) (A1)
                 (B2) (A1) (B2) (B1) (A1) (B2) (A2) (A1) (B2) (B2)
                 (A1) (B2) (A1) (A2) (B1) (A1) (B2) (B2) (A1) (A1)
                 (B2) (A2) (B2) (A1) (A1) (A1) (B2) (B2) (A1) (B2)
                 (A1) (B2) (A1) (B2) (A1) (A1) (B2) (A1) (A1) (B2)
                 (B2) (B2) (A1) (B2) (A1) (B2) (A1) (A1) (A1) (B2)
                 (B2) (A1) (B2) (B2) (B1) (A1) (A2) (A1) (B1) (B2)
                 (B2) (A1) (A1) (B1) (B2) (A2) (A1) (B2) (B1) (A1)
                 (A2) (A1) (B2) (B1) (A1) (B2) (A2) (B1) (B2) (A1)
                 (A2) (B2) (B1) (A2) (B1) (A2) (B1) (B2) (B2) (A1)
                 (B1) (B2) (A1) (A1) (A2) (A1) (B2) (A2) (B1) (A1)
                 (B2) (A2) (A1) (B2) (A1) (B2) (A1) (B2) (B1) (B2)
                 (A1) (B2) (A2) (A1) (B2) (B2) (A1) (A1) (B1) (A2)
                 (B2) (A1) (B2) (B2) (A1) (A1) (B2) (B2) (A1) (A1)
                 (B2) (B2) (A2) (A1) (A1) (B2) (B2) (A1) (B2) (B2)
                 (A1) (B2) (A1) (B2) (A1) (A1) (B2) (A1) (B2) (A1)
                 (B1) (B1) (B2) (A2) (B1) (A2) (B1) (B2) (A1) (A1)
                 (B2) (A1) (B2) (A1) (B1) (A2) (A1) (B2) (B2) (A2)
                 (B1) (B1) (B2) (A2) (B2) (A1) (B1) (B1) (A2) (B1)
                 (B1) (A2) (B1) (A2) (B2) (A2) (A1) (A1) (B2) (B2)
                 (A1) (A1) (A1) (B2) (B2) (A1) (A2) (B2) (A1) (B2)
                 (A2) (B1) (A1) (A1) (A1) (B2) (A1) (B2) (A1) (B2)
                 (B1) (A2) (A1) (B2) (A1) (B2) (A1) (B1) (B2) (A2)
                 (A1) (B2) (A1) (B2) (B1) (A1) (A1) (B2) (A1) (B2)
                 (A2) (B1) (A1) (B2) (B2) (B1) (A2) (B2) (B2) (A1)
                 (A2) (A1) (A2) (B1) (B2) (A1) (B1) (A2) (B1) (A2)
                 (B1) (B2) (B1) (A2) (A2) (A2) (B1) (A1) (B2) (A1)
                 (A1) (B2) (B2) (B2) (A1) (A2) (B1) (B2) (A1) (A1)
                 (A2) (B2) (A1) (B1) (A1) (A2) (A1) (B2) (B2) (A2)
                 (B2) (B2) (A1) (A1) (A1) (B2) (B2) (A1) (B2) (B2)
                 (A1) (B2) (A1) (B2) (B2) (A1) (B2) (A1) (B2) (B2)
 The electronic state is 1-A1.
 Alpha  occ. eigenvalues --  -10.20393 -10.20383 -10.20351 -10.20347 -10.20329
 Alpha  occ. eigenvalues --  -10.20305 -10.19458 -10.19456 -10.19420 -10.19420
 Alpha  occ. eigenvalues --  -10.19216 -10.19203 -10.19181 -10.19178 -10.19152
 Alpha  occ. eigenvalues --  -10.19143 -10.19135 -10.19134 -10.19127 -10.19127
 Alpha  occ. eigenvalues --  -10.19079 -10.19078 -10.19045 -10.19045 -10.18875
 Alpha  occ. eigenvalues --  -10.18827  -0.89212  -0.87476  -0.86290  -0.83356
 Alpha  occ. eigenvalues --   -0.81596  -0.78258  -0.77548  -0.77173  -0.75580
 Alpha  occ. eigenvalues --   -0.74634  -0.72210  -0.70364  -0.69670  -0.65869
 Alpha  occ. eigenvalues --   -0.64091  -0.62935  -0.60867  -0.60140  -0.59760
 Alpha  occ. eigenvalues --   -0.59222  -0.56951  -0.53852  -0.52735  -0.52260
 Alpha  occ. eigenvalues --   -0.50742  -0.50156  -0.48570  -0.47167  -0.46743
 Alpha  occ. eigenvalues --   -0.45630  -0.45498  -0.44179  -0.43376  -0.43238
 Alpha  occ. eigenvalues --   -0.42758  -0.42143  -0.42053  -0.42004  -0.40887
 Alpha  occ. eigenvalues --   -0.40628  -0.39882  -0.38689  -0.38612  -0.38498
 Alpha  occ. eigenvalues --   -0.36493  -0.36009  -0.35219  -0.35133  -0.34904
 Alpha  occ. eigenvalues --   -0.33176  -0.32942  -0.32918  -0.30129  -0.29097
 Alpha  occ. eigenvalues --   -0.28645  -0.27195  -0.25876  -0.23017  -0.20500
 Alpha  occ. eigenvalues --   -0.20373
 Alpha virt. eigenvalues --   -0.07284  -0.06762  -0.04312  -0.01102   0.00037
 Alpha virt. eigenvalues --    0.02139   0.02182   0.03400   0.06051   0.06235
 Alpha virt. eigenvalues --    0.06403   0.07688   0.07802   0.08447   0.09654
 Alpha virt. eigenvalues --    0.10292   0.11434   0.11944   0.12195   0.13410
 Alpha virt. eigenvalues --    0.13465   0.14749   0.15399   0.16826   0.18826
 Alpha virt. eigenvalues --    0.19100   0.19303   0.22007   0.22179   0.23062
 Alpha virt. eigenvalues --    0.23501   0.23981   0.25683   0.26532   0.26650
 Alpha virt. eigenvalues --    0.27414   0.27711   0.28131   0.28521   0.28917
 Alpha virt. eigenvalues --    0.29927   0.30209   0.30972   0.31301   0.31856
 Alpha virt. eigenvalues --    0.32569   0.32790   0.33823   0.34667   0.34847
 Alpha virt. eigenvalues --    0.34911   0.36317   0.36436   0.37453   0.38541
 Alpha virt. eigenvalues --    0.38847   0.39248   0.40448   0.41509   0.41833
 Alpha virt. eigenvalues --    0.42447   0.42489   0.43309   0.43904   0.44332
 Alpha virt. eigenvalues --    0.44640   0.45767   0.45811   0.46450   0.46813
 Alpha virt. eigenvalues --    0.46978   0.47200   0.47954   0.48091   0.48209
 Alpha virt. eigenvalues --    0.48906   0.49252   0.49825   0.50045   0.50519
 Alpha virt. eigenvalues --    0.51441   0.51727   0.51886   0.52506   0.52840
 Alpha virt. eigenvalues --    0.52909   0.53706   0.54770   0.55230   0.56347
 Alpha virt. eigenvalues --    0.57240   0.57505   0.57844   0.57981   0.59349
 Alpha virt. eigenvalues --    0.60338   0.61137   0.61593   0.64808   0.65027
 Alpha virt. eigenvalues --    0.65731   0.66035   0.66101   0.67012   0.67022
 Alpha virt. eigenvalues --    0.67790   0.68315   0.68342   0.68504   0.68756
 Alpha virt. eigenvalues --    0.68777   0.69601   0.69653   0.70187   0.70266
 Alpha virt. eigenvalues --    0.71170   0.72625   0.72636   0.73245   0.73263
 Alpha virt. eigenvalues --    0.74265   0.74931   0.75240   0.75474   0.75779
 Alpha virt. eigenvalues --    0.76280   0.77103   0.78360   0.78800   0.79184
 Alpha virt. eigenvalues --    0.79410   0.79612   0.80591   0.81098   0.81103
 Alpha virt. eigenvalues --    0.82259   0.82924   0.84078   0.85356   0.85863
 Alpha virt. eigenvalues --    0.87037   0.88343   0.88524   0.88959   0.90965
 Alpha virt. eigenvalues --    0.91015   0.93528   0.95657   0.97402   1.04690
 Alpha virt. eigenvalues --    1.06380   1.07132   1.08683   1.11241   1.11825
 Alpha virt. eigenvalues --    1.13282   1.14774   1.17667   1.17933   1.19294
 Alpha virt. eigenvalues --    1.20723   1.21346   1.22287   1.23472   1.24628
 Alpha virt. eigenvalues --    1.24903   1.25345   1.25703   1.27157   1.27700
 Alpha virt. eigenvalues --    1.28384   1.29369   1.31650   1.32761   1.33539
 Alpha virt. eigenvalues --    1.33999   1.34180   1.36414   1.37291   1.39432
 Alpha virt. eigenvalues --    1.39996   1.40556   1.41139   1.41284   1.41997
 Alpha virt. eigenvalues --    1.42533   1.43639   1.46071   1.46522   1.47288
 Alpha virt. eigenvalues --    1.48930   1.49165   1.49289   1.49295   1.49441
 Alpha virt. eigenvalues --    1.49908   1.50039   1.52524   1.52783   1.59884
 Alpha virt. eigenvalues --    1.66149   1.67120   1.70748   1.72157   1.73350
 Alpha virt. eigenvalues --    1.73707   1.74060   1.74113   1.74899   1.77151
 Alpha virt. eigenvalues --    1.77911   1.78266   1.78276   1.82229   1.82755
 Alpha virt. eigenvalues --    1.83041   1.83318   1.83854   1.84672   1.85063
 Alpha virt. eigenvalues --    1.85416   1.85624   1.88620   1.88939   1.90855
 Alpha virt. eigenvalues --    1.92113   1.93269   1.94292   1.94582   1.95403
 Alpha virt. eigenvalues --    1.99897   2.01264   2.03109   2.03476   2.04794
 Alpha virt. eigenvalues --    2.06628   2.08693   2.09021   2.09420   2.09685
 Alpha virt. eigenvalues --    2.10409   2.11170   2.13645   2.14754   2.16235
 Alpha virt. eigenvalues --    2.17224   2.17912   2.19857   2.20181   2.20371
 Alpha virt. eigenvalues --    2.20810   2.23729   2.24019   2.24247   2.27078
 Alpha virt. eigenvalues --    2.27197   2.27362   2.27891   2.28254   2.29297
 Alpha virt. eigenvalues --    2.30698   2.31007   2.32638   2.33279   2.35936
 Alpha virt. eigenvalues --    2.38782   2.38802   2.39302   2.45669   2.45970
 Alpha virt. eigenvalues --    2.48099   2.48549   2.50632   2.53453   2.54466
 Alpha virt. eigenvalues --    2.58768   2.59717   2.59930   2.60053   2.61246
 Alpha virt. eigenvalues --    2.61405   2.64278   2.65035   2.66225   2.66405
 Alpha virt. eigenvalues --    2.66532   2.67398   2.68714   2.69569   2.70991
 Alpha virt. eigenvalues --    2.72178   2.73511   2.75413   2.75975   2.82190
 Alpha virt. eigenvalues --    2.83097   2.84928   2.87569   2.89307   2.92909
 Alpha virt. eigenvalues --    2.94771   3.02164   3.05054   3.07704   3.27957
 Alpha virt. eigenvalues --    3.29374   3.35609   3.44919   3.49047   3.56760
          Condensed to atoms (all electrons):
               1          2          3          4          5          6
     1  C    5.238525   0.143937   0.149034  -0.163743  -0.002656   0.000284
     2  C    0.143937   5.238200   0.220695   0.148213   0.020792  -0.001048
     3  C    0.149034   0.220695   5.471072   0.203866  -0.159040   0.017192
     4  C   -0.163743   0.148213   0.203866   5.473976   0.210467   0.136697
     5  C   -0.002656   0.020792  -0.159040   0.210467   5.744185   0.281073
     6  C    0.000284  -0.001048   0.017192   0.136697   0.281073   5.701010
     7  C   -0.001070   0.000290  -0.001550  -0.168614   0.026034   0.055534
     8  C    0.020627  -0.002653   0.028026   0.028226  -0.158198   0.031410
     9  C    0.148179  -0.164201   0.046610  -0.066295   0.027019  -0.166847
    10  C    0.220413   0.149244  -0.179039   0.046559   0.028008  -0.001511
    11  C    0.000003  -0.000002   0.000094  -0.005548   0.026612  -0.029067
    12  C    0.000001  -0.000000   0.000001   0.000122  -0.000540   0.019718
    13  C    0.000000  -0.000000  -0.000000   0.000009   0.000000   0.001128
    14  C   -0.000000   0.000000   0.000000  -0.000001  -0.000001  -0.000602
    15  C   -0.000000   0.000000  -0.000000  -0.000000   0.000082  -0.001523
    16  C   -0.000000   0.000000  -0.000004  -0.000618  -0.001927  -0.151147
    17  C    0.000000  -0.000000   0.000013   0.001437   0.022514  -0.027701
    18  C    0.000000  -0.000000   0.000000  -0.000002  -0.000576   0.026170
    19  C   -0.000000   0.000000  -0.000000   0.000010   0.000169  -0.005607
    20  C    0.000000  -0.000000   0.000000   0.000000   0.000002   0.000094
    21  C   -0.000000   0.000000  -0.000000  -0.000000  -0.000000  -0.000002
    22  C    0.000000  -0.000000   0.000000   0.000000   0.000001   0.000002
    23  C   -0.000000   0.000000  -0.000000  -0.000002  -0.000075  -0.000500
    24  C   -0.000000   0.000000  -0.000002  -0.000235  -0.000093   0.032078
    25  C   -0.000000   0.000001  -0.000075  -0.000093  -0.027342  -0.156963
    26  C   -0.000002   0.000002  -0.000500   0.032078  -0.156963   0.198794
    27  H    0.436495  -0.084958   0.015072  -0.001281   0.000056  -0.000002
    28  H   -0.084973   0.436419  -0.076440   0.015622  -0.000545   0.000006
    29  H    0.015511  -0.082387   0.432789  -0.074025  -0.025460   0.000336
    30  H    0.000014   0.000368  -0.018627  -0.088214   0.414022  -0.044478
    31  H    0.000392   0.000012  -0.000486   0.021551  -0.002839   0.021528
    32  H   -0.082379   0.015524  -0.002148   0.019343  -0.000318  -0.000027
    33  H    0.000000  -0.000000   0.000000  -0.000077   0.000054  -0.002471
    34  H    0.000000   0.000000   0.000000   0.000000  -0.000000   0.000007
    35  H    0.000000  -0.000000  -0.000000   0.000000   0.000000  -0.000000
    36  H   -0.000000   0.000000  -0.000000   0.000000   0.000001   0.000005
    37  H    0.000000  -0.000000   0.000000  -0.000000   0.000007  -0.000073
    38  H    0.000000  -0.000000   0.000000   0.000000   0.000000  -0.000000
    39  H    0.000000   0.000000  -0.000000   0.000000   0.000000  -0.000000
    40  H   -0.000000   0.000000   0.000000  -0.000000  -0.000000   0.000000
    41  H    0.000000   0.000000   0.000000  -0.000001   0.000002  -0.000026
    42  H   -0.000000   0.000001  -0.000066   0.002650   0.013618  -0.050374
               7          8          9         10         11         12
     1  C   -0.001070   0.020627   0.148179   0.220413   0.000003   0.000001
     2  C    0.000290  -0.002653  -0.164201   0.149244  -0.000002  -0.000000
     3  C   -0.001550   0.028026   0.046610  -0.179039   0.000094   0.000001
     4  C   -0.168614   0.028226  -0.066295   0.046559  -0.005548   0.000122
     5  C    0.026034  -0.158198   0.027019   0.028008   0.026612  -0.000540
     6  C    0.055534   0.031410  -0.166847  -0.001511  -0.029067   0.019718
     7  C    5.722074   0.272369   0.139150   0.017450   0.193170  -0.155638
     8  C    0.272369   5.743371   0.212334  -0.158966  -0.155120  -0.025866
     9  C    0.139150   0.212334   5.470677   0.203744   0.031845   0.000490
    10  C    0.017450  -0.158966   0.203744   5.471060  -0.000528  -0.000072
    11  C    0.193170  -0.155120   0.031845  -0.000528   5.716369   0.249647
    12  C   -0.155638  -0.025866   0.000490  -0.000072   0.249647   5.452866
    13  C    0.029513   0.000210  -0.000188  -0.000001   0.144495   0.212676
    14  C   -0.006329   0.000120   0.000014  -0.000000  -0.187661   0.158798
    15  C    0.027873  -0.000482  -0.000006   0.000000   0.037120  -0.181578
    16  C   -0.024547   0.021680   0.001232   0.000011   0.093253   0.037120
    17  C   -0.155147  -0.001694  -0.000628  -0.000004  -0.024547   0.027873
    18  C   -0.001694   0.000087  -0.000000  -0.000000   0.021680  -0.000482
    19  C   -0.000628  -0.000000  -0.000001   0.000000   0.001232  -0.000006
    20  C   -0.000004  -0.000000   0.000000  -0.000000   0.000011   0.000000
    21  C    0.000000   0.000000  -0.000000   0.000000  -0.000000  -0.000000
    22  C   -0.000000  -0.000000   0.000000  -0.000000   0.000000   0.000000
    23  C    0.000013   0.000000  -0.000000   0.000000  -0.000004  -0.000000
    24  C    0.001437  -0.000002   0.000010   0.000000  -0.000618  -0.000000
    25  C    0.022514  -0.000576   0.000169   0.000002  -0.001927   0.000082
    26  C   -0.027701   0.026170  -0.005607   0.000094  -0.151147  -0.001523
    27  H    0.000006  -0.000541   0.015618  -0.076552   0.000000  -0.000000
    28  H   -0.000002   0.000056  -0.001274   0.015062  -0.000000   0.000000
    29  H   -0.000026  -0.000321   0.019366  -0.002149  -0.000000   0.000000
    30  H    0.021856  -0.002853   0.021376  -0.000484  -0.000084   0.000007
    31  H   -0.048923   0.417125  -0.086662  -0.019024  -0.047607   0.012095
    32  H    0.000357  -0.025127  -0.074496   0.433151  -0.000026   0.000001
    33  H   -0.051791   0.012546   0.002912  -0.000073  -0.040027   0.419386
    34  H   -0.000285   0.000003  -0.000002  -0.000000   0.015737  -0.075924
    35  H    0.000043  -0.000000  -0.000000   0.000000  -0.001419   0.015848
    36  H   -0.000088   0.000004  -0.000000   0.000000   0.022008  -0.002458
    37  H   -0.000050  -0.000000   0.000000  -0.000000  -0.001757   0.000057
    38  H   -0.000000  -0.000000  -0.000000  -0.000000   0.000001  -0.000000
    39  H   -0.000000   0.000000  -0.000000  -0.000000   0.000000  -0.000000
    40  H    0.000000  -0.000000  -0.000000   0.000000  -0.000000   0.000000
    41  H    0.000001  -0.000000   0.000000   0.000000  -0.000000  -0.000000
    42  H   -0.002181   0.000050  -0.000081   0.000000  -0.000029   0.000000
              13         14         15         16         17         18
     1  C    0.000000  -0.000000  -0.000000  -0.000000   0.000000   0.000000
     2  C   -0.000000   0.000000   0.000000   0.000000  -0.000000  -0.000000
     3  C   -0.000000   0.000000  -0.000000  -0.000004   0.000013   0.000000
     4  C    0.000009  -0.000001  -0.000000  -0.000618   0.001437  -0.000002
     5  C    0.000000  -0.000001   0.000082  -0.001927   0.022514  -0.000576
     6  C    0.001128  -0.000602  -0.001523  -0.151147  -0.027701   0.026170
     7  C    0.029513  -0.006329   0.027873  -0.024547  -0.155147  -0.001694
     8  C    0.000210   0.000120  -0.000482   0.021680  -0.001694   0.000087
     9  C   -0.000188   0.000014  -0.000006   0.001232  -0.000628  -0.000000
    10  C   -0.000001  -0.000000   0.000000   0.000011  -0.000004  -0.000000
    11  C    0.144495  -0.187661   0.037120   0.093253  -0.024547   0.021680
    12  C    0.212676   0.158798  -0.181578   0.037120   0.027873  -0.000482
    13  C    5.240958   0.148560   0.158798  -0.187661  -0.006329   0.000120
    14  C    0.148560   5.240958   0.212676   0.144495   0.029513   0.000210
    15  C    0.158798   0.212676   5.452866   0.249647  -0.155638  -0.025866
    16  C   -0.187661   0.144495   0.249647   5.716369   0.193170  -0.155120
    17  C   -0.006329   0.029513  -0.155638   0.193170   5.722074   0.272369
    18  C    0.000120   0.000210  -0.025866  -0.155120   0.272369   5.743371
    19  C    0.000014  -0.000188   0.000490   0.031845   0.139150   0.212334
    20  C   -0.000000  -0.000001  -0.000072  -0.000528   0.017450  -0.158966
    21  C   -0.000000   0.000000   0.000001   0.000003  -0.001070   0.020627
    22  C    0.000000  -0.000000  -0.000000  -0.000002   0.000290  -0.002653
    23  C    0.000000  -0.000000   0.000001   0.000094  -0.001550   0.028026
    24  C   -0.000001   0.000009   0.000122  -0.005548  -0.168614   0.028226
    25  C   -0.000001   0.000000  -0.000540   0.026612   0.026034  -0.158198
    26  C   -0.000602   0.001128   0.019718  -0.029067   0.055534   0.031410
    27  H   -0.000000   0.000000  -0.000000   0.000000  -0.000000   0.000000
    28  H    0.000000  -0.000000   0.000000  -0.000000   0.000000  -0.000000
    29  H    0.000000  -0.000000  -0.000000  -0.000000   0.000001  -0.000000
    30  H   -0.000000   0.000000   0.000000  -0.000029  -0.002181   0.000050
    31  H    0.001847  -0.000112   0.000057  -0.001757  -0.000050  -0.000000
    32  H   -0.000001   0.000000  -0.000000   0.000001  -0.000000  -0.000000
    33  H   -0.087823   0.017625  -0.002458   0.022008  -0.000088   0.000004
    34  H    0.437298  -0.088128   0.015848  -0.001419   0.000043  -0.000000
    35  H   -0.088128   0.437298  -0.075924   0.015737  -0.000285   0.000003
    36  H    0.017625  -0.087823   0.419386  -0.040027  -0.051791   0.012546
    37  H   -0.000112   0.001847   0.012095  -0.047607  -0.048923   0.417125
    38  H    0.000000  -0.000001   0.000001  -0.000026   0.000357  -0.025127
    39  H    0.000000  -0.000000  -0.000000   0.000000   0.000006  -0.000541
    40  H   -0.000000   0.000000   0.000000  -0.000000  -0.000002   0.000056
    41  H   -0.000000   0.000000   0.000000  -0.000000  -0.000026  -0.000321
    42  H    0.000000  -0.000000   0.000007  -0.000084   0.021856  -0.002853
              19         20         21         22         23         24
     1  C   -0.000000   0.000000  -0.000000   0.000000  -0.000000  -0.000000
     2  C    0.000000  -0.000000   0.000000  -0.000000   0.000000   0.000000
     3  C   -0.000000   0.000000  -0.000000   0.000000  -0.000000  -0.000002
     4  C    0.000010   0.000000  -0.000000   0.000000  -0.000002  -0.000235
     5  C    0.000169   0.000002  -0.000000   0.000001  -0.000075  -0.000093
     6  C   -0.005607   0.000094  -0.000002   0.000002  -0.000500   0.032078
     7  C   -0.000628  -0.000004   0.000000  -0.000000   0.000013   0.001437
     8  C   -0.000000  -0.000000   0.000000  -0.000000   0.000000  -0.000002
     9  C   -0.000001   0.000000  -0.000000   0.000000  -0.000000   0.000010
    10  C    0.000000  -0.000000   0.000000  -0.000000   0.000000   0.000000
    11  C    0.001232   0.000011  -0.000000   0.000000  -0.000004  -0.000618
    12  C   -0.000006   0.000000  -0.000000   0.000000  -0.000000  -0.000000
    13  C    0.000014  -0.000000  -0.000000   0.000000   0.000000  -0.000001
    14  C   -0.000188  -0.000001   0.000000  -0.000000  -0.000000   0.000009
    15  C    0.000490  -0.000072   0.000001  -0.000000   0.000001   0.000122
    16  C    0.031845  -0.000528   0.000003  -0.000002   0.000094  -0.005548
    17  C    0.139150   0.017450  -0.001070   0.000290  -0.001550  -0.168614
    18  C    0.212334  -0.158966   0.020627  -0.002653   0.028026   0.028226
    19  C    5.470677   0.203744   0.148179  -0.164201   0.046610  -0.066295
    20  C    0.203744   5.471060   0.220413   0.149244  -0.179039   0.046559
    21  C    0.148179   0.220413   5.238525   0.143937   0.149034  -0.163743
    22  C   -0.164201   0.149244   0.143937   5.238200   0.220695   0.148213
    23  C    0.046610  -0.179039   0.149034   0.220695   5.471072   0.203866
    24  C   -0.066295   0.046559  -0.163743   0.148213   0.203866   5.473976
    25  C    0.027019   0.028008  -0.002656   0.020792  -0.159040   0.210467
    26  C   -0.166847  -0.001511   0.000284  -0.001048   0.017192   0.136697
    27  H   -0.000000  -0.000000   0.000000   0.000000  -0.000000   0.000000
    28  H   -0.000000   0.000000  -0.000000   0.000000   0.000000  -0.000000
    29  H    0.000000   0.000000   0.000000   0.000000   0.000000  -0.000001
    30  H   -0.000081   0.000000  -0.000000   0.000001  -0.000066   0.002650
    31  H    0.000000  -0.000000   0.000000  -0.000000   0.000000  -0.000000
    32  H   -0.000000  -0.000000   0.000000  -0.000000   0.000000   0.000000
    33  H   -0.000000   0.000000  -0.000000   0.000000  -0.000000   0.000000
    34  H   -0.000000   0.000000   0.000000  -0.000000  -0.000000   0.000000
    35  H   -0.000002  -0.000000   0.000000   0.000000   0.000000   0.000000
    36  H    0.002912  -0.000073   0.000000  -0.000000   0.000000  -0.000077
    37  H   -0.086662  -0.019024   0.000392   0.000012  -0.000486   0.021551
    38  H   -0.074496   0.433151  -0.082379   0.015524  -0.002148   0.019343
    39  H    0.015618  -0.076552   0.436495  -0.084958   0.015072  -0.001281
    40  H   -0.001274   0.015062  -0.084973   0.436419  -0.076440   0.015622
    41  H    0.019366  -0.002149   0.015511  -0.082387   0.432789  -0.074025
    42  H    0.021376  -0.000484   0.000014   0.000368  -0.018627  -0.088214
              25         26         27         28         29         30
     1  C   -0.000000  -0.000002   0.436495  -0.084973   0.015511   0.000014
     2  C    0.000001   0.000002  -0.084958   0.436419  -0.082387   0.000368
     3  C   -0.000075  -0.000500   0.015072  -0.076440   0.432789  -0.018627
     4  C   -0.000093   0.032078  -0.001281   0.015622  -0.074025  -0.088214
     5  C   -0.027342  -0.156963   0.000056  -0.000545  -0.025460   0.414022
     6  C   -0.156963   0.198794  -0.000002   0.000006   0.000336  -0.044478
     7  C    0.022514  -0.027701   0.000006  -0.000002  -0.000026   0.021856
     8  C   -0.000576   0.026170  -0.000541   0.000056  -0.000321  -0.002853
     9  C    0.000169  -0.005607   0.015618  -0.001274   0.019366   0.021376
    10  C    0.000002   0.000094  -0.076552   0.015062  -0.002149  -0.000484
    11  C   -0.001927  -0.151147   0.000000  -0.000000  -0.000000  -0.000084
    12  C    0.000082  -0.001523  -0.000000   0.000000   0.000000   0.000007
    13  C   -0.000001  -0.000602  -0.000000   0.000000   0.000000  -0.000000
    14  C    0.000000   0.001128   0.000000  -0.000000  -0.000000   0.000000
    15  C   -0.000540   0.019718  -0.000000   0.000000  -0.000000   0.000000
    16  C    0.026612  -0.029067   0.000000  -0.000000  -0.000000  -0.000029
    17  C    0.026034   0.055534  -0.000000   0.000000   0.000001  -0.002181
    18  C   -0.158198   0.031410   0.000000  -0.000000  -0.000000   0.000050
    19  C    0.027019  -0.166847  -0.000000  -0.000000   0.000000  -0.000081
    20  C    0.028008  -0.001511  -0.000000   0.000000   0.000000   0.000000
    21  C   -0.002656   0.000284   0.000000  -0.000000   0.000000  -0.000000
    22  C    0.020792  -0.001048   0.000000   0.000000   0.000000   0.000001
    23  C   -0.159040   0.017192  -0.000000   0.000000   0.000000  -0.000066
    24  C    0.210467   0.136697   0.000000  -0.000000  -0.000001   0.002650
    25  C    5.744185   0.281073   0.000000  -0.000000   0.000002   0.013618
    26  C    0.281073   5.701010  -0.000000   0.000000  -0.000026  -0.050374
    27  H    0.000000  -0.000000   0.668895  -0.012367  -0.000323  -0.000001
    28  H   -0.000000   0.000000  -0.012367   0.668947  -0.012367  -0.000009
    29  H    0.000002  -0.000026  -0.000323  -0.012367   0.678001   0.010298
    30  H    0.013618  -0.050374  -0.000001  -0.000009   0.010298   0.693122
    31  H    0.000007  -0.000073  -0.000009  -0.000001   0.000013   0.000009
    32  H    0.000000  -0.000000  -0.012365  -0.000323   0.000036   0.000013
    33  H    0.000001   0.000005   0.000000  -0.000000  -0.000000   0.000001
    34  H    0.000000  -0.000000   0.000000  -0.000000   0.000000   0.000000
    35  H   -0.000000   0.000007  -0.000000   0.000000   0.000000  -0.000000
    36  H    0.000054  -0.002471   0.000000   0.000000   0.000000  -0.000000
    37  H   -0.002839   0.021528   0.000000   0.000000   0.000000   0.000001
    38  H   -0.000318  -0.000027  -0.000000   0.000000   0.000000   0.000000
    39  H    0.000056  -0.000002  -0.000000   0.000000   0.000000  -0.000000
    40  H   -0.000545   0.000006   0.000000  -0.000000  -0.000000   0.000000
    41  H   -0.025460   0.000336   0.000000  -0.000000   0.000000  -0.000047
    42  H    0.414022  -0.044478  -0.000000   0.000000  -0.000047  -0.000285
              31         32         33         34         35         36
     1  C    0.000392  -0.082379   0.000000   0.000000   0.000000  -0.000000
     2  C    0.000012   0.015524  -0.000000   0.000000  -0.000000   0.000000
     3  C   -0.000486  -0.002148   0.000000   0.000000  -0.000000  -0.000000
     4  C    0.021551   0.019343  -0.000077   0.000000   0.000000   0.000000
     5  C   -0.002839  -0.000318   0.000054  -0.000000   0.000000   0.000001
     6  C    0.021528  -0.000027  -0.002471   0.000007  -0.000000   0.000005
     7  C   -0.048923   0.000357  -0.051791  -0.000285   0.000043  -0.000088
     8  C    0.417125  -0.025127   0.012546   0.000003  -0.000000   0.000004
     9  C   -0.086662  -0.074496   0.002912  -0.000002  -0.000000  -0.000000
    10  C   -0.019024   0.433151  -0.000073  -0.000000   0.000000   0.000000
    11  C   -0.047607  -0.000026  -0.040027   0.015737  -0.001419   0.022008
    12  C    0.012095   0.000001   0.419386  -0.075924   0.015848  -0.002458
[...]
 6,0.00000129,0.00000014,-0.00000035,-0.00000454,-0.00000461,0.00000701
 ,0.00000565,0.00000191,-0.00001900,-0.00000043,-0.00000039,0.00000179,
 0.00000686,0.00000476,-0.00000612,-0.00001107,-0.00000246,-0.00002099,
 -0.00002103,-0.00000817,0.00016019,0.00003434,0.00006314,-0.00013641,0
 .00067700,-0.00022311,-0.00288257,-0.00173085,-0.00429002,0.00339504,-
 0.01139311,-0.01923940,-0.03943615,0.00074550,0.00230777,0.00482507,-0
 .00134915,0.00023132,0.00790443,-0.00000626,0.00011264,-0.00052587,-0.
 00146288,0.00017000,0.00468805,-0.00002239,-0.00024687,0.00015866,0.00
 004671,-0.00000441,-0.00015141,-0.00000032,-0.00000004,0.00000060,-0.0
 0000034,-0.00000025,0.00000081,0.00000013,0.00000036,0.00000129,0.0000
 0062,0.00000526,-0.00000023,-0.00000167,0.00000004,0.00000142,-0.00000
 049,0.00000029,-0.00000032,0.00000060,-0.00000048,0.00000088,0.0000007
 5,0.00000015,0.00000119,-0.00000139,0.00000080,0.00000559,-0.00000391,
 0.00000394,0.00002928,-0.00006847,0.00018596,0.00016226,0.01356659,0.0
 2080120,0.02761853,-0.00000791,-0.00000337,-0.00000116,-0.00000381,-0.
 00000232,-0.00000036,-0.00001081,0.00000602,-0.00000142,0.00001605,0.0
 0000535,0.00000194,-0.00002711,-0.00001727,-0.00000262,0.00005325,0.00
 001143,-0.00000056,-0.00000604,0.00001007,0.00000179,-0.00000359,-0.00
 000666,0.00000036,-0.00000878,0.00000953,-0.00000134,0.00000678,-0.000
 01049,0.00000101,-0.00001435,0.00005569,-0.00000716,0.00000320,-0.0000
 0026,0.00000005,-0.00001745,0.00002462,-0.00000170,-0.00001215,-0.0000
 1779,-0.00000200,-0.00001531,0.00002896,-0.00000040,-0.00002956,-0.000
 10455,0.00000129,-0.00014113,0.00027545,0.00008224,-0.00059618,-0.0005
 6504,-0.00012572,0.00061148,0.00325489,-0.00117614,-0.01367264,-0.0043
 1741,-0.00273329,-0.32799774,-0.02539866,-0.04341456,-0.00809834,0.001
 98051,-0.00163786,0.00104018,-0.00251196,-0.00061672,0.00066496,0.0001
 2343,0.00018933,0.00004626,-0.00004920,0.00011032,0.00004065,0.0000758
 8,-0.00000784,-0.00000484,-0.00000104,-0.00000084,-0.00000290,-0.00000
 416,-0.00000061,0.00000399,0.00000009,0.00000033,0.00000916,0.00001153
 ,0.00000130,-0.00000374,0.00000344,-0.00000069,-0.00000184,0.00000408,
 -0.00000030,-0.00000832,0.00000323,-0.00000167,-0.00000476,0.00000490,
 -0.00000077,0.00000105,0.00001105,0.00000009,0.00000033,-0.00002013,-0
 .00000030,0.00003488,0.00002765,-0.00002882,0.00090538,0.00009760,0.00
 090540,0.34701438,0.00000214,-0.00000950,0.00000017,-0.00000765,0.0000
 0490,-0.00000102,0.00000965,0.00000077,0.00000145,-0.00001570,0.000005
 83,-0.00000229,0.00002063,0.00000206,0.00000328,-0.00002964,0.00000942
 ,-0.00000521,-0.00002522,-0.00003008,-0.00000395,0.00001835,0.00001595
 ,0.00000310,-0.00000845,-0.00001677,-0.00000155,0.00000773,0.00000795,
 0.00000130,0.00002623,-0.00001985,0.00000289,0.00001245,-0.00000333,0.
 00000174,0.00000918,0.00000115,0.00000143,-0.00000442,0.00000843,-0.00
 000050,-0.00000431,-0.00001677,-0.00000076,0.00007110,0.00009755,0.000
 01299,0.00035867,-0.00016890,0.00006140,0.00072559,0.00078590,0.000117
 43,0.00220050,-0.00428525,0.00010610,0.02677707,0.00682975,0.00400889,
 -0.02594717,-0.06130169,-0.00423543,-0.02910407,0.00192367,-0.00433230
 ,-0.00123946,-0.00499926,-0.00034882,0.00052032,-0.00082145,0.00007338
 ,-0.00031938,0.00026649,-0.00003115,0.00001103,-0.00028490,-0.00000481
 ,0.00000003,0.00000020,0.,0.00000032,0.00000028,0.00000004,0.00000025,
 0.00000165,0.00000003,0.00000252,0.00000332,0.00000040,-0.00000033,-0.
 00000028,-0.00000008,-0.00000010,-0.00000007,-0.00000003,0.00000343,-0
 .00000402,0.00000039,0.00000147,-0.00000071,0.00000019,0.00000101,-0.0
 0000389,0.00000006,0.00000233,0.00000839,0.00000048,-0.00003331,-0.000
 01460,-0.00000905,-0.00057776,0.00108944,0.00001908,0.02710469,0.05974
 941,-0.00000107,-0.00000065,-0.00000065,-0.00000045,-0.00000023,-0.000
 00168,-0.00000136,0.00000091,-0.00000072,0.00000159,0.00000083,0.00000
 380,-0.00000199,-0.00000233,-0.00001172,-0.00000124,0.00000088,0.00005
 814,0.00000121,0.00000127,-0.00001682,0.00000078,-0.00000061,-0.000006
 66,-0.00000164,0.00000111,0.00000113,0.00000131,-0.00000140,-0.0000010
 5,-0.00000765,0.00000725,0.00003920,0.00000026,-0.00000014,0.00000285,
 -0.00000196,0.00000372,-0.00000344,-0.00000178,-0.00000248,-0.00000092
 ,-0.00000096,0.00000417,-0.00000941,0.00000422,-0.00001303,-0.00004961
 ,0.00008362,0.00004907,-0.00065210,-0.00010423,-0.00007376,0.00017231,
 -0.00119370,0.00026230,0.00874456,-0.00221545,-0.00059732,0.00395507,-
 0.04342369,-0.00415417,-0.04428280,-0.00215554,0.00027245,0.00286596,-
 0.00059552,-0.00053732,0.00482379,0.00019594,0.00001458,-0.00056998,0.
 00010582,0.00000887,-0.00068815,-0.00000892,0.00000480,0.00010086,-0.0
 0000082,-0.00000016,0.00000058,-0.00000053,-0.00000062,0.00000063,0.00
 000033,0.00000001,0.00000181,0.00000115,0.00000173,0.00000189,-0.00000
 076,0.00000048,0.00000123,-0.00000037,0.00000059,0.00000060,-0.0000016
 7,0.00000036,0.00000308,-0.00000082,0.00000070,0.00000086,-0.00000008,
 0.00000154,0.00000173,0.00000007,-0.00000284,0.00000005,-0.00002983,-0
 .00000002,0.00022811,0.00089415,0.00011913,-0.00506115,0.04805255,0.00
 458257,0.03287506,-0.00001428,0.00000220,-0.00000188,0.00000269,-0.000
 00360,0.00000063,-0.00002075,0.00001160,-0.00000252,0.00003099,0.00000
 641,0.00000443,-0.00003557,-0.00001711,-0.00000418,0.00005667,0.000141
 87,0.00001739,-0.00004213,-0.00001064,-0.00001177,-0.00001849,0.000003
 16,-0.00000306,-0.00000752,0.00001625,-0.00000025,0.00000340,-0.000014
 94,0.00000031,-0.00001789,-0.00001761,-0.00000021,0.00000369,0.0000115
 1,0.00000207,-0.00001245,0.00000372,-0.00000177,0.00000439,-0.00000683
 ,0.00000025,-0.00001178,0.00002638,0.00000027,0.00003977,-0.00004233,-
 0.00000423,-0.00017536,-0.00018548,-0.00004358,0.00033554,-0.00005952,
 0.00015304,-0.00047912,-0.00050786,0.00000891,-0.00035552,-0.00249464,
 -0.00082311,0.01081491,-0.01208237,0.00093020,-0.15345057,0.13114722,-
 0.01494944,-0.01325906,0.02714642,-0.00214757,-0.00460802,-0.00249916,
 -0.00204611,0.00008666,0.00133962,0.00000690,-0.00047629,0.00006682,0.
 00002966,-0.00000352,-0.00000108,-0.00000065,-0.00000440,-0.00000419,-
 0.00000098,0.00000488,-0.00000235,0.00000030,0.00001188,0.00001311,0.0
 0000217,-0.00000883,0.00000197,-0.00000237,-0.00000198,0.00000293,-0.0
 0000037,-0.00000387,-0.00000018,-0.00000072,-0.00000265,0.00000342,-0.
 00000043,0.00000065,0.00000564,-0.00000009,-0.00000076,-0.00000762,-0.
 00000054,-0.00001606,0.00005802,-0.00000787,0.00035463,-0.00060502,0.0
 0001226,0.00069466,0.00069321,0.00053453,0.15941493,0.00001014,0.00000
 935,0.00000168,0.00000816,-0.00000431,0.00000117,0.00000501,-0.0000104
 2,0.00000061,-0.00000493,-0.00000141,-0.00000078,0.00001767,-0.0000125
 6,0.00000256,-0.00002540,0.00002884,-0.00000254,0.00001779,0.00001829,
 0.00000234,-0.00000850,0.00000231,-0.00000126,0.00001522,0.00000379,0.
 00000238,-0.00001202,0.00000663,-0.00000166,0.00000008,-0.00002494,-0.
 00000010,-0.00000064,0.00000716,0.00000017,0.00000153,-0.00001135,0.00
 000004,0.00001020,0.00000735,0.00000160,-0.00000656,-0.00001576,-0.000
 00106,0.00000170,0.00003190,-0.00000028,-0.00012431,-0.00006212,-0.000
 02108,0.00021318,-0.00003284,0.00004276,-0.00090522,0.00035025,-0.0001
 1833,-0.00376775,-0.00356683,-0.00069949,0.01900359,-0.01748261,0.0024
 7105,0.13169451,-0.24041807,0.01613413,-0.00394348,0.00640918,-0.00054
 888,-0.00144665,0.00107346,-0.00034503,0.00004908,0.00008394,0.0000054
 9,-0.00002489,0.00016285,0.00001017,0.00000340,0.00000089,0.00000051,0
 .00000262,0.00000344,0.00000042,-0.00000316,0.00000089,-0.00000050,-0.
 00000712,-0.00000525,-0.00000112,0.00000240,-0.00000256,0.00000019,0.0
 0000158,-0.00000314,0.00000017,0.00000426,-0.00000025,0.00000061,0.000
 00366,-0.00000317,0.00000048,-0.00000177,-0.00000381,-0.00000036,0.000
 00259,0.00001401,0.00000058,-0.00004023,0.00004454,-0.00000594,0.00085
 210,-0.00092591,0.00010741,-0.00019547,0.00123421,0.00003882,-0.141733
 06,0.25225326,-0.00000175,0.00000050,-0.00000158,0.00000083,-0.0000005
 7,-0.00000187,-0.00000263,0.00000159,-0.00000280,0.00000424,0.00000090
 ,0.00000244,-0.00000360,-0.00000259,-0.00000983,0.00001460,0.00002224,
 -0.00004223,-0.00001130,-0.00000187,0.00003444,-0.00000325,0.00000046,
 0.00000202,-0.00000027,0.00000254,-0.00000400,0.00000036,-0.00000210,-
 0.00000034,0.00000008,-0.00000272,-0.00001848,0.00000187,0.00000197,-0
 .00000867,-0.00000181,0.00000036,-0.00000032,0.00000054,-0.00000092,0.
 00000199,-0.00000028,0.00000382,-0.00001062,-0.00000350,-0.00000680,0.
 00006293,-0.00004256,-0.00003014,0.00009114,0.00015759,0.00000236,-0.0
 0068091,0.00000229,-0.00005947,-0.00059698,-0.00084432,-0.00051089,0.0
 0478691,0.00144790,-0.00213390,0.00335617,-0.01494033,0.01605306,-0.03
 973541,-0.00266534,0.00405666,0.00396285,-0.00202859,-0.00050095,0.008
 61457,-0.00001459,0.00019667,0.00019182,0.00002814,0.00002375,-0.00066
 447,-0.00000057,-0.00000016,0.00000063,-0.00000087,-0.00000059,0.00000
 163,0.00000028,-0.00000038,0.00000266,0.00000184,0.00000188,-0.0000010
 3,-0.00000236,0.00000013,0.00000703,-0.00000040,0.00000037,0.00000081,
 -0.00000064,-0.00000005,0.00000084,-0.00000042,0.00000044,0.00000056,-
 0.00000022,0.00000074,0.00000189,-0.00000037,-0.00000093,0.00000197,-0
 .00000951,0.00000861,0.00004235,0.00003653,-0.00010844,0.00020745,0.00
 051973,0.00017047,-0.00275594,0.01744911,-0.01722259,0.02798770,0.0000
 0868,-0.00000102,0.00000148,-0.00000151,-0.00000097,0.00000042,0.00001
 212,0.00000057,0.00000270,-0.00002230,-0.00003056,-0.00000363,0.000010
 01,0.00005566,0.00000584,-0.00004407,-0.00002823,-0.00003092,0.0000176
 8,0.00000540,0.00000158,0.00001127,-0.00000342,0.00000376,0.00001149,-
 0.00000824,0.00000109,-0.00000133,0.00000685,0.00000025,0.00000496,0.0
 0002562,0.00000171,-0.00000793,-0.00001438,-0.00000159,0.00000469,0.00
 000390,0.00000136,-0.00001147,-0.00000651,-0.00000172,0.00001453,0.000
 01605,0.00000484,-0.00003178,-0.00002185,-0.00001225,0.00025394,0.0001
 4996,0.00006421,0.00048485,0.00081203,0.00006031,-0.00202834,0.0024616
 7,-0.00098337,-0.00052120,0.00054951,0.00000988,-0.00493730,0.00114616
 ,-0.00191258,-0.00766134,-0.02998220,-0.00232762,-0.10284421,-0.101249
 55,-0.01137983,0.01006423,0.01668365,0.00121738,0.00107542,0.00135382,
 0.00062316,0.00011031,-0.00045187,0.00002922,0.00000396,0.00000022,0.0
 0000033,0.00000367,0.00000372,0.00000022,-0.00000290,-0.00000316,-0.00
 000183,-0.00001076,-0.00001291,-0.00000598,0.00000637,-0.00000276,0.00
 000075,0.00000287,-0.00000290,0.00000019,0.00000238,0.00000196,0.00000
 024,0.00000048,-0.00000284,-0.00000015,-0.00000033,-0.00000371,-0.0000
 0042,-0.00001405,-0.00000729,-0.00000219,-0.00014629,0.00021348,-0.000
 04522,0.00004019,-0.00009034,0.00017456,-0.00046614,-0.00134391,-0.000
 12161,0.00115375,0.00032197,0.00094623,0.10570870,0.00001020,0.0000020
 4,0.00000157,0.00000238,0.00000967,0.00000059,0.00002196,-0.00002572,0
 .00000293,-0.00002437,0.00005095,-0.00000274,0.00006473,-0.00006407,0.
 00000891,-0.00007143,-0.00003523,-0.00001386,-0.00000203,-0.00005212,-
 0.00000130,0.00000168,0.00002854,0.00000097,-0.00000242,-0.00001484,-0
 .00000066,-0.00000697,0.00001568,-0.00000073,0.00001078,-0.00006368,0.
 00000060,0.00000054,0.00000777,0.00000019,0.00002295,-0.00003143,0.000
 00294,0.00003148,0.00003735,0.00000530,-0.00001552,-0.00003939,-0.0000
 0268,0.00001754,0.00012422,0.00000386,-0.00000002,0.00021558,0.0000063
 0,-0.00116152,-0.00075687,-0.00018748,0.00417509,-0.00160948,0.0005102
 9,0.00072720,0.00044614,0.00012392,-0.00042639,0.00170548,-0.00016970,
 0.00124283,0.00073919,0.00011847,-0.10169872,-0.28732866,-0.01922745,-
 0.01222442,-0.01894796,-0.00218842,-0.00222216,0.00100798,-0.00026278,
 0.00037437,0.00009961,0.00005941,0.00000037,0.00000168,0.00000005,0.00
 000290,0.00000210,0.00000042,0.00000006,0.00001259,0.00000007,0.000021
 47,0.00002009,0.00000305,-0.00000368,-0.00000069,-0.00000057,-0.000002
 04,-0.00000044,-0.00000033,0.00000989,-0.00000666,0.00000134,0.0000053
 0,-0.00000216,0.00000073,-0.00000236,-0.00000507,-0.00000047,0.0000196
 6,0.00002716,0.00000337,0.00020944,-0.00030574,0.00002289,-0.00007987,
 -0.00008209,0.00000593,0.00011340,-0.00008399,0.00001201,-0.00035348,0
 .00083355,0.00004808,0.10999931,0.30369048,0.00000166,-0.00000009,-0.0
 0000116,0.00000048,0.00000009,-0.00000440,0.00000306,-0.00000024,-0.00
 000560,-0.00000353,-0.00000366,-0.00000181,0.00000599,0.00000756,-0.00
 002215,-0.00003164,-0.00000746,0.00015669,0.00000146,-0.00000020,0.000
 00784,0.00000384,0.00000021,-0.00001390,0.00000119,-0.00000152,0.00000
 336,0.00000002,0.00000131,-0.00000223,0.00000146,0.00000280,-0.0000034
 3,-0.00000134,-0.00000202,0.00000094,0.00000168,0.00000012,-0.00000381
 ,-0.00000109,-0.00000033,-0.00000077,0.00000431,0.00000199,-0.00001566
 ,-0.00001159,-0.00000198,0.00004668,0.00006171,0.00002851,-0.00015305,
 0.00002744,0.00010487,0.00017486,-0.00095483,0.00025647,0.00474952,0.0
 0001284,0.00009759,-0.00052260,-0.00193877,0.00006325,0.00781639,-0.00
 180760,-0.00450709,0.00433783,-0.01138732,-0.01916091,-0.03941289,0.00
 073594,0.00209391,0.00386580,0.00056360,0.00026695,-0.00289109,0.00004
 298,-0.00006299,-0.00013241,0.00000033,0.00000003,0.00000181,0.0000002
 0,0.00000054,0.00000266,-0.00000177,-0.00000041,0.00000881,-0.00000541
 ,-0.00000205,0.00002731,0.00000074,-0.00000044,0.00000108,0.00000020,-
 0.00000046,0.00000128,0.00000037,0.00000016,0.00000104,-0.00000001,-0.
 00000048,0.00000114,-0.00000039,-0.00000067,0.00000200,-0.00000174,-0.
 00000063,-0.00000035,-0.00004529,0.00002349,0.00017664,0.00017474,0.00
 000438,-0.00112240,-0.00009734,-0.00020387,0.00018590,0.00093498,0.000
 14814,-0.00505667,0.01375098,0.02093204,0.02763416,-0.00000956,-0.0000
 2416,-0.00000268,-0.00003010,0.00003428,0.00000111,0.00000423,0.000029
 97,-0.00000006,-0.00001312,-0.00036233,0.00005066,-0.00398961,0.002201
 84,-0.00058094,-0.00015375,-0.00156779,0.00056235,0.00006136,0.0001035
 5,0.00001762,0.00003522,-0.00015946,-0.00001513,0.00001401,-0.00001231
 ,0.00000310,0.00002820,-0.00001372,-0.00000485,0.00014662,0.00003165,0
 .00005575,-0.00004602,-0.00006655,-0.00001681,-0.00000509,0.00001059,0
 .00000023,0.00005132,0.00003718,0.00000973,-0.00024045,0.00016306,-0.0
 0001984,0.00077342,0.00066986,0.00007028,-0.00211745,0.00254801,-0.001
 28801,-0.00061152,0.00062369,-0.00002983,-0.00500065,0.00136547,-0.001
 51502,-0.00001433,-0.00153178,-0.00003663,0.00006178,-0.00008688,0.000
 03495,0.00019153,0.00031348,0.00004563,0.00111283,-0.00195817,0.000671
 66,-0.00946390,-0.02952054,-0.00266615,-0.09648975,-0.09755697,-0.0102
 0787,0.01247280,0.01592134,0.00144829,0.00001164,-0.00000086,0.0000014
 6,0.00001237,0.00001064,0.00000221,-0.00000792,-0.00002707,-0.00000579
 ,-0.00417671,-0.00043669,-0.00086433,0.00003339,-0.00001228,0.00000195
 ,0.00001122,-0.00000685,0.00000161,-0.00001238,0.00002317,0.00000003,-
 0.00000331,-0.00000385,-0.00000022,-0.00001736,0.00002410,-0.00000186,
 0.00000205,-0.00000446,-0.00000297,-0.00001447,-0.00005922,0.00014315,
 -0.00043663,-0.00004719,-0.00009214,0.00000881,0.00008097,-0.00000390,
 0.00001279,0.00000875,-0.00003268,-0.00025329,0.00121186,-0.00004255,0
 .10806176,0.00003434,0.00001610,0.00000526,0.00000343,-0.00004122,0.00
 000038,0.00006206,0.00001563,0.00000932,-0.00008857,0.00092393,0.00000
 886,-0.00161627,-0.00052909,-0.00025123,-0.00182132,-0.00080404,-0.000
 21448,0.00021024,-0.00007454,0.00003067,-0.00008439,0.00008004,-0.0000
 1316,-0.00019243,-0.00002605,-0.00002880,-0.00004129,0.00009352,-0.000
 00555,-0.00021182,-0.00000914,-0.00002776,0.00001831,0.00009824,0.0000
 0335,0.00003697,-0.00004205,0.00000487,-0.00005900,-0.00003943,-0.0000
 0923,0.00036924,-0.00020276,0.00005279,-0.00103554,-0.00068142,-0.0001
 7098,0.00427656,-0.00152758,0.00049376,0.00049143,0.00054874,0.0000876
 0,-0.00030956,0.00141964,-0.00011181,0.00032782,-0.00028678,0.00004277
 ,0.00004674,0.00029097,0.00001483,-0.00036138,0.00003405,-0.00005161,0
 .00210682,0.00083486,0.00038664,-0.00026429,-0.00110693,-0.00014444,-0
 .09733645,-0.29552925,-0.01869879,-0.01107046,-0.01938317,-0.00203745,
 -0.00000986,0.00000085,-0.00000148,-0.00000958,-0.00000574,-0.00000149
 ,0.00000731,0.00001726,0.00000090,-0.00078864,0.00194500,-0.00011123,-
 0.00000017,-0.00000085,-0.00000035,-0.00003409,0.00000194,-0.00000501,
 0.00003655,-0.00003377,0.00000502,0.00001031,-0.00000195,0.00000153,0.
 00002361,-0.00004143,0.00000284,-0.00001942,0.00002938,-0.00000275,-0.
 00008845,-0.00012211,0.00000131,-0.00005134,-0.00000875,-0.00001075,-0
 .00001774,0.00001859,-0.00000305,-0.00005243,0.00000723,-0.00001155,-0
 .00054290,0.00037843,-0.00007696,0.10804567,0.31374367,-0.00000170,-0.
 00000341,0.00000550,0.00000060,0.00000495,-0.00003359,0.00000048,0.000
 00457,0.00000813,0.00005522,-0.00003170,-0.00038820,-0.00064453,0.0003
 1437,0.00008937,0.00055812,-0.00017692,-0.00404642,0.00001940,0.000014
 86,-0.00004283,-0.00001388,-0.00002428,0.00011693,0.00000010,-0.000002
 12,-0.00000831,-0.00000531,-0.00000146,0.00005857,0.00005169,0.0000083
 0,-0.00021836,-0.00001540,-0.00000922,0.00005757,0.00000067,0.00000096
 ,-0.00000534,0.00000813,0.00000502,-0.00000890,-0.00001640,0.00002225,
 -0.00009026,0.00004187,0.00008165,0.00038188,-0.00125922,0.00023770,0.
 00668119,-0.00003203,0.00010719,-0.00034297,-0.00154292,0.00013632,0.0
 0515380,-0.00000566,-0.00023270,0.00005605,0.00003717,-0.00000496,-0.0
 0017848,0.00003439,0.00004836,-0.00007535,0.00073936,-0.00021553,-0.00
 353544,-0.00217892,-0.00447835,0.00481795,-0.01020420,-0.01873146,-0.0
 4037226,0.00099877,0.00196101,0.00466658,0.00000131,-0.00000014,0.0000
 0188,0.00000187,0.00000150,-0.00000103,-0.00000522,-0.00000419,0.00002
 730,-0.00087019,-0.00005909,0.00147900,0.00000215,-0.00000215,0.000019
 12,0.00000116,-0.00000098,-0.00000026,0.00000025,0.00000304,-0.0000098
 6,0.00000002,-0.00000056,-0.00000227,-0.00000187,0.00000291,-0.0000023
 1,-0.00000321,-0.00000053,0.00002109,0.00014266,0.00000564,-0.00096623
 ,-0.00009221,-0.00001014,0.00016623,-0.00000554,0.00001157,0.00004361,
 -0.00003370,-0.00000249,0.00022935,-0.00007178,0.00018299,0.00016263,0
 .01430851,0.02083721,0.02608494\\0.00001178,0.00001411,0.00000198,0.00
 001666,0.00000717,0.00000259,-0.00001510,-0.00002498,-0.00000265,0.000
 02760,0.00002463,0.00000450,-0.00003408,-0.00000255,-0.00000509,0.0000
 2361,-0.00001991,0.00000317,-0.00000246,0.00003353,0.00000019,0.000001
 52,-0.00000652,0.00000012,0.00003469,0.00001710,0.00000542,-0.00002819
 ,-0.00000488,-0.00000426,-0.00005546,-0.00002421,-0.00000862,0.0000317
 7,0.00000291,0.00000476,-0.00004171,-0.00002383,-0.00000658,0.00004558
 ,-0.00001518,0.00000650,-0.00003173,-0.00000338,-0.00000476,0.00005915
 ,-0.00001285,0.00000855,-0.00000419,0.00003336,-0.00000006,-0.00000021
 ,-0.00000669,-0.00000014,-0.00003738,0.00000996,-0.00000537,0.00002860
 ,0.00000074,0.00000425,-0.00001433,0.00001153,-0.00000193,-0.00001775,
 0.00000376,-0.00000257,0.00001972,-0.00002153,0.00000256,-0.00003191,0
 .00001873,-0.00000442,0.00003392,0.00000418,0.00000509,-0.00001923,-0.
 00002415,-0.00000325,-0.00000687,0.00000263,-0.00000097,0.00000003,-0.
 00000754,-0.00000012,-0.00001026,-0.00000276,-0.00000157,-0.00000930,0
 .00001114,-0.00000119,0.00000904,0.00001313,0.00000156,-0.00000609,-0.
 00000897,-0.00000105,-0.00001514,-0.00000952,-0.00000240,-0.00000399,0
 .00000219,-0.00000055,0.00000348,0.00000293,0.00000056,0.00001672,-0.0
 0000636,0.00000237,-0.00001145,0.00001110,-0.00000151,0.00000774,-0.00
 000760,0.00000102,0.00000622,0.00000393,0.00000099,0.00000146,-0.00000
 740,0.00000009,0.00001060,-0.00000070,0.00000156,0.00000693,0.00001274
 ,0.00000124\\\@
 The archive entry for this job was punched.


 DESK:  A WASTEBASKET WITH DRAWERS.
 Job cpu time:       0 days  1 hours  0 minutes 45.7 seconds.
 Elapsed time:       0 days  0 hours  7 minutes 35.8 seconds.
 File lengths (MBytes):  RWF=    480 Int=      0 D2E=      0 Chk=     15 Scr=      1
 Normal termination of Gaussian 16 at Tue Oct  8 21:21:15 2024.
