 Entering Gaussian System, Link 0=g16
 Initial command:
 /opt/g16/l1.exe "/tmp/Gau-1151927.inp" -scrdir="/tmp/"
 Entering Link 1 = /opt/g16/l1.exe PID=   1151929.
  
 Copyright (c) 1988-2019, Gaussian, Inc.  All Rights Reserved.
  
 This is part of the Gaussian(R) 16 program.  It is based on
 the Gaussian(R) 09 system (copyright 2009, Gaussian, Inc.),
 the Gaussian(R) 03 system (copyright 2003, Gaussian, Inc.),
 the Gaussian(R) 98 system (copyright 1998, Gaussian, Inc.),
 the Gaussian(R) 94 system (copyright 1995, Gaussian, Inc.),
 the Gaussian 92(TM) system (copyright 1992, Gaussian, Inc.),
 the Gaussian 90(TM) system (copyright 1990, Gaussian, Inc.),
 the Gaussian 88(TM) system (copyright 1988, Gaussian, Inc.),
 the Gaussian 86(TM) system (copyright 1986, Carnegie Mellon
 University), and the Gaussian 82(TM) system (copyright 1983,
 Carnegie Mellon University). Gaussian is a federally registered
 trademark of Gaussian, Inc.
  
 This software contains proprietary and confidential information,
 including trade secrets, belonging to Gaussian, Inc.
  
 This software is provided under written license and may be
 used, copied, transmitted, or stored only in accord with that
 written license.
  
 The following legend is applicable only to US Government
 contracts under FAR:
  
                    RESTRICTED RIGHTS LEGEND
  
 Use, reproduction and disclosure by the US Government is
 subject to restrictions as set forth in subparagraphs (a)
 and (c) of the Commercial Computer Software - Restricted
 Rights clause in FAR 52.227-19.
  
 Gaussian, Inc.
 340 Quinnipiac St., Bldg. 40, Wallingford CT 06492
  
  
 ---------------------------------------------------------------
 Warning -- This program may not be used in any manner that
 competes with the business of Gaussian, Inc. or will provide
 assistance to any competitor of Gaussian, Inc.  The licensee
 of this program is prohibited from giving any competitor of
 Gaussian, Inc. access to this program.  By using this program,
 the user acknowledges that Gaussian, Inc. is engaged in the
 business of creating and licensing software in the field of
 computational chemistry and represents and warrants to the
 licensee that it is not a competitor of Gaussian, Inc. and that
 it will not use this program in any manner prohibited above.
 ---------------------------------------------------------------
  

 Cite this work as:
 Gaussian 16, Revision C.01,
 M. J. Frisch, G. W. Trucks, H. B. Schlegel, G. E. Scuseria, 
 M. A. Robb, J. R. Cheeseman, G. Scalmani, V. Barone, 
 G. A. Petersson, H. Nakatsuji, X. Li, M. Caricato, A. V. Marenich, 
 J. Bloino, B. G. Janesko, R. Gomperts, B. Mennucci, H. P. Hratchian, 
 J. V. Ortiz, A. F. Izmaylov, J. L. Sonnenberg, D. Williams-Young, 
 F. Ding, F. Lipparini, F. Egidi, J. Goings, B. Peng, A. Petrone, 
 T. Henderson, D. Ranasinghe, V. G. Zakrzewski, J. Gao, N. Rega, 
 G. Zheng, W. Liang, M. Hada, M. Ehara, K. Toyota, R. Fukuda, 
 J. Hasegawa, M. Ishida, T. Nakajima, Y. Honda, O. Kitao, H. Nakai, 
 T. Vreven, K. Throssell, J. A. Montgomery, Jr., J. E. Peralta, 
 F. Ogliaro, M. J. Bearpark, J. J. Heyd, E. N. Brothers, K. N. Kudin, 
 V. N. Staroverov, T. A. Keith, R. Kobayashi, J. Normand, 
 K. Raghavachari, A. P. Rendell, J. C. Burant, S. S. Iyengar, 
 J. Tomasi, M. Cossi, J. M. Millam, M. Klene, C. Adamo, R. Cammi, 
 J. W. Ochterski, R. L. Martin, K. Morokuma, O. Farkas, 
 J. B. Foresman, and D. J. Fox, Gaussian, Inc., Wallingford CT, 2019.
 
 ******************************************
 Gaussian 16:  ES64L-G16RevC.01  3-Jul-2019
                 8-Oct-2024 
 ******************************************
 %nprocshared=8
 Will use up to    8 processors via shared memory.
 %mem=8800MB
 ----------------------------------------------------------------------
 #N opt freq B3LYP/def2SVPP symm=veryloose em=gd3bj scale=0.961 press=0
 .987
 ----------------------------------------------------------------------
 1/18=20,19=15,26=3,38=1,113=-987000,114=961000/1,3;
 2/9=110,12=2,17=2,18=2,40=1/2;
 3/5=43,7=202,11=2,25=1,30=1,71=1,74=-5,124=41/1,2,3;
 4//1;
 5/5=2,38=5/2;
 6/7=2,8=2,9=2,10=2,28=1/1;
 7//1,2,3,16;
 1/18=20,19=15,26=3/3(2);
 2/9=110/2;
 99//99;
 2/9=110/2;
 3/5=43,7=202,11=2,25=1,30=1,71=1,74=-5,124=41/1,2,3;
 4/5=5,16=3,69=1/1;
 5/5=2,38=5/2;
 7//1,2,3,16;
 1/18=20,19=15,26=3/3(-5);
 2/9=110/2;
 6/7=2,8=2,9=2,10=2,19=2,28=1/1;
 99/9=1/99;
 ------------------------------------
 c1ccc2c(c1)ccc1c2ccc2c3ccccc3ccc21_2
 ------------------------------------
 Symbolic Z-matrix:
 Charge =  0 Multiplicity = 1
 C                    -5.7549   -0.2573   -0.2371 
 C                    -5.1107   -1.4343   -0.5807 
 C                    -3.713    -1.495    -0.5609 
 C                    -2.903    -0.3848   -0.1979 
 C                    -3.5943    0.7993    0.1466 
 C                    -4.9994    0.8533    0.1245 
 C                    -2.8744    1.93      0.5134 
 C                    -1.4801    1.909     0.5453 
 C                    -0.7215    0.7635    0.2145 
 C                    -1.4558   -0.3945   -0.1611 
 C                    -0.7073   -1.5352   -0.4907 
 C                     0.6887   -1.5536   -0.458 
 C                     1.4508   -0.433    -0.093 
 C                     2.8979   -0.4616   -0.0621 
 C                     3.6944   -1.5931   -0.3875 
 C                     5.0925   -1.5693   -0.3417 
 C                     5.7509   -0.4096    0.0323 
 C                     5.0089    0.7208    0.3589 
 C                     3.6034    0.704     0.3151 
 C                     2.8973    1.8537    0.6486 
 C                     1.5029    1.8695    0.6151 
 C                     0.7306    0.7443    0.2485 
 H                    -6.8397   -0.2009   -0.2496 
 H                    -5.6878   -2.3101   -0.8654 
 H                    -3.2658   -2.4444   -0.8401 
 H                    -5.5194    1.7711    0.3919 
 H                    -3.3869    2.8515    0.7822 
 H                    -0.9999    2.8361    0.8431 
 H                    -1.1924   -2.4603   -0.7879 
 H                     1.1625   -2.4915   -0.7328 
 H                     3.2357   -2.5305   -0.6878 
 H                     5.659    -2.4603   -0.5997 
 H                     6.8362   -0.3819    0.0706 
 H                     5.5399    1.6247    0.6509 
 H                     3.4208    2.7614    0.9416 
 H                     1.034     2.8092    0.8907 
 

 GradGradGradGradGradGradGradGradGradGradGradGradGradGradGradGradGradGrad
 Berny optimization.
 Initialization pass.
                           ----------------------------
                           !    Initial Parameters    !
                           ! (Angstroms and Degrees)  !
 --------------------------                            --------------------------
 ! Name  Definition              Value          Derivative Info.                !
 --------------------------------------------------------------------------------
 ! R1    R(1,2)                  1.3851         estimate D2E/DX2                !
 ! R2    R(1,6)                  1.391          estimate D2E/DX2                !
 ! R3    R(1,23)                 1.0863         estimate D2E/DX2                !
 ! R4    R(2,3)                  1.3992         estimate D2E/DX2                !
 ! R5    R(2,24)                 1.0868         estimate D2E/DX2                !
 ! R6    R(3,4)                  1.4214         estimate D2E/DX2                !
 ! R7    R(3,25)                 1.086          estimate D2E/DX2                !
 ! R8    R(4,5)                  1.4137         estimate D2E/DX2                !
 ! R9    R(4,10)                 1.4477         estimate D2E/DX2                !
 ! R10   R(5,6)                  1.4063         estimate D2E/DX2                !
 ! R11   R(5,7)                  1.3897         estimate D2E/DX2                !
 ! R12   R(6,26)                 1.0882         estimate D2E/DX2                !
 ! R13   R(7,8)                  1.3948         estimate D2E/DX2                !
 ! R14   R(7,27)                 1.0882         estimate D2E/DX2                !
 ! R15   R(8,9)                  1.4132         estimate D2E/DX2                !
 ! R16   R(8,28)                 1.0857         estimate D2E/DX2                !
 ! R17   R(9,10)                 1.4217         estimate D2E/DX2                !
 ! R18   R(9,22)                 1.4526         estimate D2E/DX2                !
 ! R19   R(10,11)                1.4036         estimate D2E/DX2                !
 ! R20   R(11,12)                1.3965         estimate D2E/DX2                !
 ! R21   R(11,29)                1.086          estimate D2E/DX2                !
 ! R22   R(12,13)                1.4035         estimate D2E/DX2                !
 ! R23   R(12,30)                1.0861         estimate D2E/DX2                !
 ! R24   R(13,14)                1.4477         estimate D2E/DX2                !
 ! R25   R(13,22)                1.4217         estimate D2E/DX2                !
 ! R26   R(14,15)                1.4215         estimate D2E/DX2                !
 ! R27   R(14,19)                1.4137         estimate D2E/DX2                !
 ! R28   R(15,16)                1.3991         estimate D2E/DX2                !
 ! R29   R(15,31)                1.086          estimate D2E/DX2                !
 ! R30   R(16,17)                1.385          estimate D2E/DX2                !
 ! R31   R(16,32)                1.0869         estimate D2E/DX2                !
 ! R32   R(17,18)                1.3911         estimate D2E/DX2                !
 ! R33   R(17,33)                1.0863         estimate D2E/DX2                !
 ! R34   R(18,19)                1.4063         estimate D2E/DX2                !
 ! R35   R(18,34)                1.0882         estimate D2E/DX2                !
 ! R36   R(19,20)                1.3898         estimate D2E/DX2                !
 ! R37   R(20,21)                1.3949         estimate D2E/DX2                !
 ! R38   R(20,35)                1.088          estimate D2E/DX2                !
 ! R39   R(21,22)                1.4131         estimate D2E/DX2                !
 ! R40   R(21,36)                1.0858         estimate D2E/DX2                !
 ! A1    A(2,1,6)              119.3633         estimate D2E/DX2                !
 ! A2    A(2,1,23)             120.3787         estimate D2E/DX2                !
 ! A3    A(6,1,23)             120.258          estimate D2E/DX2                !
 ! A4    A(1,2,3)              119.8663         estimate D2E/DX2                !
 ! A5    A(1,2,24)             120.1863         estimate D2E/DX2                !
 ! A6    A(3,2,24)             119.9474         estimate D2E/DX2                !
 ! A7    A(2,3,4)              122.615          estimate D2E/DX2                !
 ! A8    A(2,3,25)             116.4658         estimate D2E/DX2                !
 ! A9    A(4,3,25)             120.9192         estimate D2E/DX2                !
 ! A10   A(3,4,5)              115.9612         estimate D2E/DX2                !
 ! A11   A(3,4,10)             124.8142         estimate D2E/DX2                !
 ! A12   A(5,4,10)             119.2246         estimate D2E/DX2                !
 ! A13   A(4,5,6)              121.1243         estimate D2E/DX2                !
 ! A14   A(4,5,7)              119.5034         estimate D2E/DX2                !
 ! A15   A(6,5,7)              119.3724         estimate D2E/DX2                !
 ! A16   A(1,6,5)              121.0698         estimate D2E/DX2                !
 ! A17   A(1,6,26)             118.5358         estimate D2E/DX2                !
 ! A18   A(5,6,26)             120.3944         estimate D2E/DX2                !
 ! A19   A(5,7,8)              120.7715         estimate D2E/DX2                !
 ! A20   A(5,7,27)             120.6797         estimate D2E/DX2                !
 ! A21   A(8,7,27)             118.5488         estimate D2E/DX2                !
 ! A22   A(7,8,9)              122.919          estimate D2E/DX2                !
 ! A23   A(7,8,28)             115.8195         estimate D2E/DX2                !
 ! A24   A(9,8,28)             121.2615         estimate D2E/DX2                !
 ! A25   A(8,9,10)             116.4119         estimate D2E/DX2                !
 ! A26   A(8,9,22)             122.8093         estimate D2E/DX2                !
 ! A27   A(10,9,22)            120.7788         estimate D2E/DX2                !
 ! A28   A(4,10,9)             121.1696         estimate D2E/DX2                !
 ! A29   A(4,10,11)            122.1789         estimate D2E/DX2                !
 ! A30   A(9,10,11)            116.6515         estimate D2E/DX2                !
 ! A31   A(10,11,12)           122.5673         estimate D2E/DX2                !
 ! A32   A(10,11,29)           121.2206         estimate D2E/DX2                !
 ! A33   A(12,11,29)           116.2122         estimate D2E/DX2                !
 ! A34   A(11,12,13)           122.5734         estimate D2E/DX2                !
 ! A35   A(11,12,30)           116.2014         estimate D2E/DX2                !
 ! A36   A(13,12,30)           121.2252         estimate D2E/DX2                !
 ! A37   A(12,13,14)           122.1782         estimate D2E/DX2                !
 ! A38   A(12,13,22)           116.6518         estimate D2E/DX2                !
 ! A39   A(14,13,22)           121.1701         estimate D2E/DX2                !
 ! A40   A(13,14,15)           124.8155         estimate D2E/DX2                !
 ! A41   A(13,14,19)           119.2243         estimate D2E/DX2                !
 ! A42   A(15,14,19)           115.9602         estimate D2E/DX2                !
 ! A43   A(14,15,16)           122.6099         estimate D2E/DX2                !
 ! A44   A(14,15,31)           120.9129         estimate D2E/DX2                !
 ! A45   A(16,15,31)           116.4772         estimate D2E/DX2                !
 ! A46   A(15,16,17)           119.8766         estimate D2E/DX2                !
 ! A47   A(15,16,32)           119.9426         estimate D2E/DX2                !
 ! A48   A(17,16,32)           120.1807         estimate D2E/DX2                !
 ! A49   A(16,17,18)           119.3573         estimate D2E/DX2                !
 ! A50   A(16,17,33)           120.3841         estimate D2E/DX2                !
 ! A51   A(18,17,33)           120.2586         estimate D2E/DX2                !
 ! A52   A(17,18,19)           121.0704         estimate D2E/DX2                !
 ! A53   A(17,18,34)           118.535          estimate D2E/DX2                !
 ! A54   A(19,18,34)           120.3947         estimate D2E/DX2                !
 ! A55   A(14,19,18)           121.1256         estimate D2E/DX2                !
 ! A56   A(14,19,20)           119.5068         estimate D2E/DX2                !
 ! A57   A(18,19,20)           119.3676         estimate D2E/DX2                !
 ! A58   A(19,20,21)           120.7623         estimate D2E/DX2                !
 ! A59   A(19,20,35)           120.6834         estimate D2E/DX2                !
 ! A60   A(21,20,35)           118.5542         estimate D2E/DX2                !
 ! A61   A(20,21,22)           122.9248         estimate D2E/DX2                !
 ! A62   A(20,21,36)           115.8121         estimate D2E/DX2                !
 ! A63   A(22,21,36)           121.2631         estimate D2E/DX2                !
 ! A64   A(9,22,13)            120.7773         estimate D2E/DX2                !
 ! A65   A(9,22,21)            122.811          estimate D2E/DX2                !
 ! A66   A(13,22,21)           116.4117         estimate D2E/DX2                !
 ! D1    D(6,1,2,3)              0.0048         estimate D2E/DX2                !
 ! D2    D(6,1,2,24)          -179.9965         estimate D2E/DX2                !
 ! D3    D(23,1,2,3)          -179.9991         estimate D2E/DX2                !
 ! D4    D(23,1,2,24)           -0.0003         estimate D2E/DX2                !
 ! D5    D(2,1,6,5)             -0.0066         estimate D2E/DX2                !
 ! D6    D(2,1,6,26)           179.9973         estimate D2E/DX2                !
 ! D7    D(23,1,6,5)           179.9972         estimate D2E/DX2                !
 ! D8    D(23,1,6,26)            0.0011         estimate D2E/DX2                !
 ! D9    D(1,2,3,4)             -0.0037         estimate D2E/DX2                !
 ! D10   D(1,2,3,25)          -179.9971         estimate D2E/DX2                !
 ! D11   D(24,2,3,4)           179.9975         estimate D2E/DX2                !
 ! D12   D(24,2,3,25)            0.0041         estimate D2E/DX2                !
 ! D13   D(2,3,4,5)              0.0042         estimate D2E/DX2                !
 ! D14   D(2,3,4,10)          -179.9994         estimate D2E/DX2                !
 ! D15   D(25,3,4,5)           179.9973         estimate D2E/DX2                !
 ! D16   D(25,3,4,10)           -0.0063         estimate D2E/DX2                !
 ! D17   D(3,4,5,6)             -0.0059         estimate D2E/DX2                !
 ! D18   D(3,4,5,7)           -179.9991         estimate D2E/DX2                !
 ! D19   D(10,4,5,6)           179.9974         estimate D2E/DX2                !
 ! D20   D(10,4,5,7)             0.0043         estimate D2E/DX2                !
 ! D21   D(3,4,10,9)          -179.9995         estimate D2E/DX2                !
 ! D22   D(3,4,10,11)            0.0035         estimate D2E/DX2                !
 ! D23   D(5,4,10,9)            -0.0032         estimate D2E/DX2                !
 ! D24   D(5,4,10,11)          179.9998         estimate D2E/DX2                !
 ! D25   D(4,5,6,1)              0.0074         estimate D2E/DX2                !
 ! D26   D(4,5,6,26)          -179.9966         estimate D2E/DX2                !
 ! D27   D(7,5,6,1)           -179.9995         estimate D2E/DX2                !
 ! D28   D(7,5,6,26)            -0.0034         estimate D2E/DX2                !
 ! D29   D(4,5,7,8)             -0.0054         estimate D2E/DX2                !
 ! D30   D(4,5,7,27)          -179.9999         estimate D2E/DX2                !
 ! D31   D(6,5,7,8)           -179.9986         estimate D2E/DX2                !
 ! D32   D(6,5,7,27)             0.0069         estimate D2E/DX2                !
 ! D33   D(5,7,8,9)              0.0055         estimate D2E/DX2                !
 ! D34   D(5,7,8,28)          -179.9958         estimate D2E/DX2                !
 ! D35   D(27,7,8,9)          -179.9999         estimate D2E/DX2                !
 ! D36   D(27,7,8,28)           -0.0012         estimate D2E/DX2                !
 ! D37   D(7,8,9,10)            -0.0041         estimate D2E/DX2                !
 ! D38   D(7,8,9,22)           179.9981         estimate D2E/DX2                !
 ! D39   D(28,8,9,10)          179.9972         estimate D2E/DX2                !
 ! D40   D(28,8,9,22)           -0.0006         estimate D2E/DX2                !
 ! D41   D(8,9,10,4)             0.003          estimate D2E/DX2                !
 ! D42   D(8,9,10,11)         -179.9998         estimate D2E/DX2                !
 ! D43   D(22,9,10,4)         -179.9992         estimate D2E/DX2                !
 ! D44   D(22,9,10,11)          -0.002          estimate D2E/DX2                !
 ! D45   D(8,9,22,13)          179.9948         estimate D2E/DX2                !
 ! D46   D(8,9,22,21)           -0.0013         estimate D2E/DX2                !
 ! D47   D(10,9,22,13)          -0.0029         estimate D2E/DX2                !
 ! D48   D(10,9,22,21)        -179.9989         estimate D2E/DX2                !
 ! D49   D(4,10,11,12)         179.999          estimate D2E/DX2                !
 ! D50   D(4,10,11,29)          -0.0072         estimate D2E/DX2                !
 ! D51   D(9,10,11,12)           0.0019         estimate D2E/DX2                !
 ! D52   D(9,10,11,29)         179.9957         estimate D2E/DX2                !
 ! D53   D(10,11,12,13)          0.0034         estimate D2E/DX2                !
 ! D54   D(10,11,12,30)        179.9948         estimate D2E/DX2                !
 ! D55   D(29,11,12,13)       -179.9907         estimate D2E/DX2                !
 ! D56   D(29,11,12,30)          0.0007         estimate D2E/DX2                !
 ! D57   D(11,12,13,14)       -179.9968         estimate D2E/DX2                !
 ! D58   D(11,12,13,22)         -0.0081         estimate D2E/DX2                !
 ! D59   D(30,12,13,14)          0.0122         estimate D2E/DX2                !
 ! D60   D(30,12,13,22)       -179.9991         estimate D2E/DX2                !
 ! D61   D(12,13,14,15)         -0.0097         estimate D2E/DX2                !
 ! D62   D(12,13,14,19)        179.9971         estimate D2E/DX2                !
 ! D63   D(22,13,14,15)       -179.9979         estimate D2E/DX2                !
 ! D64   D(22,13,14,19)          0.0089         estimate D2E/DX2                !
 ! D65   D(12,13,22,9)           0.0078         estimate D2E/DX2                !
 ! D66   D(12,13,22,21)       -179.996          estimate D2E/DX2                !
 ! D67   D(14,13,22,9)         179.9966         estimate D2E/DX2                !
 ! D68   D(14,13,22,21)         -0.0072         estimate D2E/DX2                !
 ! D69   D(13,14,15,16)       -179.9924         estimate D2E/DX2                !
 ! D70   D(13,14,15,31)          0.003          estimate D2E/DX2                !
 ! D71   D(19,14,15,16)          0.001          estimate D2E/DX2                !
 ! D72   D(19,14,15,31)        179.9964         estimate D2E/DX2                !
 ! D73   D(13,14,19,18)        179.9953         estimate D2E/DX2                !
 ! D74   D(13,14,19,20)         -0.005          estimate D2E/DX2                !
 ! D75   D(15,14,19,18)          0.0016         estimate D2E/DX2                !
 ! D76   D(15,14,19,20)       -179.9988         estimate D2E/DX2                !
 ! D77   D(14,15,16,17)         -0.0052         estimate D2E/DX2                !
 ! D78   D(14,15,16,32)       -179.9946         estimate D2E/DX2                !
 ! D79   D(31,15,16,17)        179.9992         estimate D2E/DX2                !
 ! D80   D(31,15,16,32)          0.0098         estimate D2E/DX2                !
 ! D81   D(15,16,17,18)          0.0068         estimate D2E/DX2                !
 ! D82   D(15,16,17,33)       -179.9951         estimate D2E/DX2                !
 ! D83   D(32,16,17,18)        179.9962         estimate D2E/DX2                !
 ! D84   D(32,16,17,33)         -0.0057         estimate D2E/DX2                !
 ! D85   D(16,17,18,19)         -0.0044         estimate D2E/DX2                !
 ! D86   D(16,17,18,34)        179.9997         estimate D2E/DX2                !
 ! D87   D(33,17,18,19)        179.9975         estimate D2E/DX2                !
 ! D88   D(33,17,18,34)          0.0016         estimate D2E/DX2                !
 ! D89   D(17,18,19,14)          0.0001         estimate D2E/DX2                !
 ! D90   D(17,18,19,20)       -179.9995         estimate D2E/DX2                !
 ! D91   D(34,18,19,14)        179.996          estimate D2E/DX2                !
 ! D92   D(34,18,19,20)         -0.0036         estimate D2E/DX2                !
 ! D93   D(14,19,20,21)         -0.0002         estimate D2E/DX2                !
 ! D94   D(14,19,20,35)       -179.9983         estimate D2E/DX2                !
 ! D95   D(18,19,20,21)        179.9994         estimate D2E/DX2                !
 ! D96   D(18,19,20,35)          0.0013         estimate D2E/DX2                !
 ! D97   D(19,20,21,22)          0.0018         estimate D2E/DX2                !
 ! D98   D(19,20,21,36)        179.9978         estimate D2E/DX2                !
 ! D99   D(35,20,21,22)       -180.0            estimate D2E/DX2                !
 ! D100  D(35,20,21,36)         -0.004          estimate D2E/DX2                !
 ! D101  D(20,21,22,9)         179.9981         estimate D2E/DX2                !
 ! D102  D(20,21,22,13)          0.0019         estimate D2E/DX2                !
 ! D103  D(36,21,22,9)           0.0023         estimate D2E/DX2                !
 ! D104  D(36,21,22,13)       -179.9939         estimate D2E/DX2                !
 --------------------------------------------------------------------------------
 Trust Radius=3.00D-01 FncErr=1.00D-07 GrdErr=1.00D-06 EigMax=2.50D+02 EigMin=1.00D-04
 Number of steps in this run=    216 maximum allowed number of steps=    216.
 GradGradGradGradGradGradGradGradGradGradGradGradGradGradGradGradGradGrad

                          Input orientation:                          
 ---------------------------------------------------------------------
 Center     Atomic      Atomic             Coordinates (Angstroms)
 Number     Number       Type             X           Y           Z
 ---------------------------------------------------------------------
      1          6           0       -5.754900   -0.257300   -0.237100
      2          6           0       -5.110700   -1.434300   -0.580700
      3          6           0       -3.713000   -1.495000   -0.560900
      4          6           0       -2.903000   -0.384800   -0.197900
      5          6           0       -3.594300    0.799300    0.146600
      6          6           0       -4.999400    0.853300    0.124500
      7          6           0       -2.874400    1.930000    0.513400
      8          6           0       -1.480100    1.909000    0.545300
      9          6           0       -0.721500    0.763500    0.214500
     10          6           0       -1.455800   -0.394500   -0.161100
     11          6           0       -0.707300   -1.535200   -0.490700
     12          6           0        0.688700   -1.553600   -0.458000
     13          6           0        1.450800   -0.433000   -0.093000
     14          6           0        2.897900   -0.461600   -0.062100
     15          6           0        3.694400   -1.593100   -0.387500
     16          6           0        5.092500   -1.569300   -0.341700
     17          6           0        5.750900   -0.409600    0.032300
     18          6           0        5.008900    0.720800    0.358900
     19          6           0        3.603400    0.704000    0.315100
     20          6           0        2.897300    1.853700    0.648600
     21          6           0        1.502900    1.869500    0.615100
     22          6           0        0.730600    0.744300    0.248500
     23          1           0       -6.839700   -0.200900   -0.249600
     24          1           0       -5.687800   -2.310100   -0.865400
     25          1           0       -3.265800   -2.444400   -0.840100
     26          1           0       -5.519400    1.771100    0.391900
     27          1           0       -3.386900    2.851500    0.782200
     28          1           0       -0.999900    2.836100    0.843100
     29          1           0       -1.192400   -2.460300   -0.787900
     30          1           0        1.162500   -2.491500   -0.732800
     31          1           0        3.235700   -2.530500   -0.687800
     32          1           0        5.659000   -2.460300   -0.599700
     33          1           0        6.836200   -0.381900    0.070600
     34          1           0        5.539900    1.624700    0.650900
     35          1           0        3.420800    2.761400    0.941600
     36          1           0        1.034000    2.809200    0.890700
 ---------------------------------------------------------------------
                    Distance matrix (angstroms):
                    1          2          3          4          5
     1  C    0.000000
     2  C    1.385057   0.000000
     3  C    2.409586   1.399158   0.000000
     4  C    2.855018   2.474252   1.421412   0.000000
     5  C    2.435533   2.795962   2.403842   1.413743   0.000000
     6  C    1.391031   2.396416   2.763894   2.455957   1.406311
     7  C    3.693888   4.185285   3.686190   2.421790   1.389705
     8  C    4.855813   5.062291   4.218618   2.799734   2.420793
     9  C    5.155685   4.972700   3.827681   2.499522   2.873825
    10  C    4.301960   3.823028   2.542812   1.447700   2.468404
    11  C    5.213023   4.405475   3.006788   2.496047   3.767069
    12  C    6.576410   5.801925   4.403293   3.786034   4.923999
    13  C    7.209282   6.655354   5.292599   4.355330   5.198943
    14  C    8.656980   8.084106   6.709748   5.802998   6.616803
    15  C    9.544436   8.808651   7.410079   6.709815   7.689863
    16  C   10.926956  10.206892   8.808541   8.084042   9.017161
    17  C   11.509961  10.927037   9.544390   8.656997   9.423761
    18  C   10.824569  10.389110   9.045847   8.008155   8.606177
    19  C    9.423736   9.017224   7.689778   6.616789   7.200303
    20  C    8.949936   8.743580   7.508179   6.274625   6.595804
    21  C    7.610860   7.488974   6.317313   5.015455   5.229366
    22  C    6.580328   6.289249   5.041346   3.831082   4.326450
    23  H    1.086337   2.149498   3.398214   3.941332   3.419064
    24  H    2.147848   1.086795   2.157995   3.450717   3.882687
    25  H    3.367883   2.119256   1.085956   2.187692   3.406329
    26  H    2.136705   3.374548   3.852054   3.441122   2.170386
    27  H    4.038692   4.816333   4.560956   3.415903   2.158362
    28  H    5.774598   6.096081   5.300052   3.883255   3.371139
    29  H    5.096371   4.055698   2.708645   2.753535   4.155407
    30  H    7.286137   6.363477   4.979263   4.610053   5.850629
    31  H    9.284474   8.418760   7.026578   6.521324   7.644128
    32  H   11.630211  10.818478   9.421661   8.819126   9.838979
    33  H   12.595476  12.010835  10.626542   9.742901  10.497444
    34  H   11.484902  11.149422   9.839570   8.720156   9.185272
    35  H    9.731154   9.628488   8.441893   7.154543   7.327584
    36  H    7.534223   7.611153   6.570182   5.185234   5.100445
                    6          7          8          9         10
     6  C    0.000000
     7  C    2.413742   0.000000
     8  C    3.698249   1.394823   0.000000
     9  C    4.279789   2.466788   1.413178   0.000000
    10  C    3.767715   2.805473   2.409503   1.421702   0.000000
    11  C    4.950306   4.208581   3.678727   2.404481   1.403597
    12  C    6.203786   5.076886   4.207125   2.794615   2.455716
    13  C    6.580802   4.965767   3.805597   2.499011   2.907653
    14  C    8.008191   6.274584   5.015532   3.831114   4.355342
    15  C    9.045948   7.508195   6.317458   5.041442   5.292680
    16  C   10.389070   8.743443   7.488953   6.289190   6.655299
    17  C   10.824619   8.949915   7.610942   6.580374   7.209310
    18  C   10.011921   7.976995   6.599522   5.732378   6.580778
    19  C    8.606206   6.595778   5.229435   4.326479   5.198940
    20  C    7.977052   5.773787   4.378968   3.804299   4.965833
    21  C    6.599489   4.378899   2.984078   2.516281   3.805534
    22  C    5.732378   3.804219   2.516309   1.452625   2.498996
    23  H    2.153600   4.565798   5.814538   6.211105   5.388107
    24  H    3.385395   5.272073   6.123367   5.939473   4.698445
    25  H    3.848460   4.595708   4.905115   4.228033   2.817664
    26  H    1.088237   2.652553   4.044563   4.905769   4.637723
    27  H    2.650571   1.088151   2.140167   3.433130   3.893004
    28  H    4.521491   2.107954   1.085722   2.183647   3.413655
    29  H    5.128905   4.878241   4.577224   3.408730   2.174807
    30  H    7.063403   6.115492   5.289733   3.878383   3.402902
    31  H    8.940179   7.659782   6.593062   5.227238   5.181706
    32  H   11.185075   9.660882   8.447991   7.194900   7.421609
    33  H   11.900002   9.991832   8.639121   7.645357   8.295246
    34  H   10.580595   8.420959   7.026548   6.335396   7.326413
    35  H    8.672270   6.364285   4.990236   4.656064   5.912434
    36  H    6.388624   4.023797   2.692649   2.779193   4.191549
                   11         12         13         14         15
    11  C    0.000000
    12  C    1.396504   0.000000
    13  C    2.455688   1.403483   0.000000
    14  C    3.785998   2.495950   1.447712   0.000000
    15  C    4.403290   3.006786   2.542893   1.421474   0.000000
    16  C    5.801814   4.405363   3.822958   2.474155   1.399052
    17  C    6.576386   5.212965   4.301989   2.855035   2.409584
    18  C    6.203733   4.950187   3.767697   2.455938   2.763902
    19  C    4.923968   3.766951   2.468401   1.413730   2.403871
    20  C    5.076986   4.208583   2.805589   2.421923   3.686367
    21  C    4.207108   3.678597   2.409487   2.799759   4.218706
    22  C    2.794654   2.404421   1.421740   2.499571   3.827799
    23  H    6.280511   7.651799   8.295227   9.742894  10.626594
    24  H    5.054330   6.434129   7.421571   8.819098   9.421685
    25  H    2.737635   4.071559   5.181718   6.521348   7.026659
    26  H    5.904821   7.093410   7.326450   8.720207   9.839686
    27  H    5.295627   6.128092   5.912466   7.154592   8.442007
    28  H    4.579618   4.879928   4.191566   5.185273   6.570285
    29  H    1.086029   2.114114   3.402843   4.610004   4.979274
    30  H    2.114066   1.086121   2.174829   2.753533   2.708666
    31  H    4.071452   2.737581   2.817652   2.187683   1.085958
    32  H    6.434086   5.054312   4.698472   3.450723   2.157943
    33  H    7.651768   6.280450   5.388127   3.941341   3.398201
    34  H    7.093358   5.904692   4.637699   3.441102   3.852062
    35  H    6.128088   5.295515   3.893005   3.415928   4.561034
    36  H    4.879980   4.579547   3.413686   3.883308   5.300167
                   16         17         18         19         20
    16  C    0.000000
    17  C    1.385016   0.000000
    18  C    2.396328   1.391056   0.000000
    19  C    2.795836   2.435536   1.406283   0.000000
    20  C    4.185275   3.693966   2.413761   1.389824   0.000000
    21  C    5.062217   4.855868   3.698268   2.420845   1.394892
    22  C    4.972650   5.155739   4.279789   2.873854   2.466868
    23  H   12.010762  12.595485  11.899963  10.497431   9.991862
    24  H   10.818406  11.630203  11.185019   9.838942   9.660920
    25  H    8.418752   9.284523   8.940176   7.644136   7.659876
    26  H   11.149388  11.484965  10.580611   9.185319   8.421019
    27  H    9.628440   9.731213   8.672285   7.327635   6.364324
    28  H    7.611087   7.534273   6.388632   5.100491   4.023818
    29  H    6.363407   7.286118   7.063333   5.850564   6.115535
    30  H    4.055652   5.096381   5.128886   4.155395   4.878377
    31  H    2.119292   3.367936   3.848476   3.406318   4.595834
    32  H    1.086907   2.147845   3.385401   3.882672   5.272176
    33  H    2.149512   1.086329   2.153622   3.419058   4.565843
    34  H    3.374471   2.136718   1.088237   2.170365   2.652505
    35  H    4.816264   4.038742   2.650594   2.158411   1.088035
    36  H    6.096023   5.774658   4.521510   3.371201   2.107956
                   21         22         23         24         25
    21  C    0.000000
    22  C    1.413123   0.000000
    23  H    8.639053   7.645322   0.000000
    24  H    8.447905   7.194859   2.480889   0.000000
    25  H    6.593014   5.227243   4.260838   2.425853   0.000000
    26  H    7.026535   6.335407   2.458353   4.273799   4.936292
    27  H    4.990229   4.656064   4.722667   5.886497   5.540134
    28  H    2.692639   2.779174   6.672378   7.167897   5.987583
    29  H    5.289633   3.878339   6.106280   4.498576   2.074118
    30  H    4.577229   3.408796   8.337598   6.853984   4.429850
    31  H    4.905114   4.228061  10.350495   8.927988   6.503854
    32  H    6.123404   5.939531  12.706099  11.350904   8.928051
    33  H    5.814583   6.211145  13.680845  12.706086  10.350540
    34  H    4.044574   4.905751  12.545844  11.993459   9.814327
    35  H    2.140194   3.433112  10.745792  10.580735   8.659413
    36  H    1.085753   2.183640   8.506241   8.629815   7.006016
                   26         27         28         29         30
    26  H    0.000000
    27  H    2.422221   0.000000
    28  H    4.665157   2.387826   0.000000
    29  H    6.166004   5.957874   5.545184   0.000000
    30  H    8.005154   7.179130   5.961775   2.355751   0.000000
    31  H    9.814341   8.659426   7.006023   4.429788   2.074055
    32  H   11.993525  10.580793   8.629859   6.853984   4.498578
    33  H   12.545896  10.745838   8.506277   8.337577   6.106287
    34  H   11.063301   9.011661   6.653827   8.005075   6.165984
    35  H    9.011661   6.810162   4.422428   7.179062   5.957893
    36  H    6.653834   4.422434   2.034635   5.961727   5.545240
                   31         32         33         34         35
    31  H    0.000000
    32  H    2.425917   0.000000
    33  H    4.260898   2.480897   0.000000
    34  H    4.936309   4.273805   2.458370   0.000000
    35  H    5.540164   5.886535   4.722704   2.422226   0.000000
    36  H    5.987616   7.167953   6.672421   4.665156   2.387821
                   36
    36  H    0.000000
 Stoichiometry    C22H14
 Framework group  C2V[SGV(C22H14)]
 Deg. of freedom    35
 Full point group                 C2V     NOp   4
 Largest Abelian subgroup         C2V     NOp   4
 Largest concise Abelian subgroup C2      NOp   2
                         Standard orientation:                         
 ---------------------------------------------------------------------
 Center     Atomic      Atomic             Coordinates (Angstroms)
 Number     Number       Type             X           Y           Z
 ---------------------------------------------------------------------
      1          6           0        0.000000    5.754969    0.371253
      2          6           0        0.000000    5.103470    1.593519
      3          6           0        0.000000    3.705009    1.637652
      4          6           0        0.000000    2.901495    0.465143
      5          6           0        0.000000    3.600150   -0.763902
      6          6           0        0.000000    5.005974   -0.800913
      7          6           0        0.000000    2.886886   -1.956603
      8          6           0        0.000000    1.492066   -1.953952
      9          6           0        0.000000    0.726326   -0.766216
     10          6           0        0.000000    1.453829    0.455248
     11          6           0        0.000000    0.698221    1.638101
     12          6           0       -0.000000   -0.698221    1.638101
     13          6           0       -0.000000   -1.453829    0.455248
     14          6           0       -0.000000   -2.901495    0.465143
     15          6           0       -0.000000   -3.705009    1.637652
     16          6           0       -0.000000   -5.103470    1.593519
     17          6           0       -0.000000   -5.754969    0.371253
     18          6           0       -0.000000   -5.005974   -0.800913
     19          6           0       -0.000000   -3.600150   -0.763902
     20          6           0       -0.000000   -2.886886   -1.956603
     21          6           0       -0.000000   -1.492066   -1.953952
     22          6           0       -0.000000   -0.726326   -0.766216
     23          1           0        0.000000    6.840416    0.327278
     24          1           0        0.000000    5.675437    2.517628
     25          1           0        0.000000    3.251943    2.624583
     26          1           0        0.000000    5.531671   -1.753752
     27          1           0        0.000000    3.405102   -2.913433
     28          1           0        0.000000    1.017336   -2.930385
     29          1           0        0.000000    1.177861    2.612475
     30          1           0       -0.000000   -1.177861    2.612475
     31          1           0       -0.000000   -3.251943    2.624583
     32          1           0       -0.000000   -5.675437    2.517628
     33          1           0       -0.000000   -6.840416    0.327278
     34          1           0       -0.000000   -5.531671   -1.753752
     35          1           0       -0.000000   -3.405102   -2.913433
     36          1           0        0.000000   -1.017336   -2.930385
 ---------------------------------------------------------------------
 Rotational constants (GHZ):           0.9881658           0.1459374           0.1271580
 Standard basis: def2SVPP (5D, 7F)
 There are   135 symmetry adapted cartesian basis functions of A1  symmetry.
 There are    44 symmetry adapted cartesian basis functions of A2  symmetry.
 There are    44 symmetry adapted cartesian basis functions of B1  symmetry.
 There are   135 symmetry adapted cartesian basis functions of B2  symmetry.
 There are   124 symmetry adapted basis functions of A1  symmetry.
 There are    44 symmetry adapted basis functions of A2  symmetry.
 There are    44 symmetry adapted basis functions of B1  symmetry.
 There are   124 symmetry adapted basis functions of B2  symmetry.
   336 basis functions,   606 primitive gaussians,   358 cartesian basis functions
    73 alpha electrons       73 beta electrons
       nuclear repulsion energy      1533.3579488846 Hartrees.
 NAtoms=   36 NActive=   36 NUniq=   18 SFac= 4.00D+00 NAtFMM=   60 NAOKFM=F Big=F
 Integral buffers will be    131072 words long.
 Raffenetti 2 integral format.
 Two-electron integral symmetry is turned on.
 Nuclear repulsion after empirical dispersion term =     1533.2657492660 Hartrees.
 One-electron integrals computed using PRISM.
   4 Symmetry operations used in ECPInt.
 ECPInt:  NShTT=   12880 NPrTT=   51688 LenC2=   11551 LenP2D=   31582.
 LDataN:  DoStor=T MaxTD1= 4 Len=   56
 NBasis=   336 RedAO= T EigKep=  1.87D-04  NBF=   124    44    44   124
 NBsUse=   336 1.00D-06 EigRej= -1.00D+00 NBFU=   124    44    44   124
 ExpMin= 1.22D-01 ExpMax= 1.24D+03 ExpMxC= 1.86D+02 IAcc=3 IRadAn=         5 AccDes= 0.00D+00
 Harris functional with IExCor=  402 and IRadAn=       5 diagonalized for initial guess.
 HarFok:  IExCor=  402 AccDes= 0.00D+00 IRadAn=         5 IDoV= 1 UseB2=F ITyADJ=14
 ICtDFT=  3500011 ScaDFX=  1.000000  1.000000  1.000000  1.000000
 FoFCou: FMM=F IPFlag=           0 FMFlag=      100000 FMFlg1=           0
         NFxFlg=           0 DoJE=T BraDBF=F KetDBF=T FulRan=T
         wScrn=  0.000000 ICntrl=       500 IOpCl=  0 I1Cent=   200000004 NGrid=           0
         NMat0=    1 NMatS0=      1 NMatT0=    0 NMatD0=    1 NMtDS0=    0 NMtDT0=    0
 Petite list used in FoFCou.
 Initial guess orbital symmetries:
       Occupied  (B2) (A1) (B2) (A1) (B2) (A1) (A1) (B2) (A1) (B2)
                 (B2) (A1) (B2) (A1) (B2) (A1) (B2) (A1) (B2) (A1)
                 (B2) (A1) (A1) (B2) (A1) (B2) (A1) (B2) (A1) (A1)
                 (B2) (B2) (A1) (A1) (B2) (A1) (B2) (B2) (A1) (B2)
                 (A1) (A1) (A1) (B2) (B2) (B2) (A1) (A1) (A1) (B2)
                 (A1) (B2) (A1) (B2) (B2) (A1) (B1) (A1) (A2) (B2)
                 (B2) (A1) (A1) (B1) (B2) (A2) (B1) (A2) (B1) (B1)
                 (A2) (A2) (B1)
       Virtual   (A2) (B1) (B1) (A2) (A2) (B1) (B1) (A2) (A2) (A1)
                 (A1) (B2) (B2) (A1) (A1) (B1) (B2) (B2) (A1) (A1)
                 (B2) (A2) (A1) (B2) (B2) (A1) (A1) (A1) (B2) (B2)
                 (A1) (A1) (B2) (B2) (A1) (B2) (A1) (B2) (A1) (B2)
                 (B2) (A1) (B2) (A1) (B2) (A1) (B2) (A1) (B2) (A1)
                 (A1) (B2) (A1) (B2) (A1) (B2) (A1) (B1) (B2) (A2)
                 (B2) (A1) (B2) (B1) (A1) (B1) (B2) (A1) (A2) (A1)
                 (A2) (B2) (A1) (B1) (A1) (B2) (B1) (A2) (B2) (A2)
                 (B1) (B1) (A2) (B1) (B2) (A1) (B2) (B2) (A1) (A1)
                 (B1) (B2) (A2) (A1) (A1) (B2) (B2) (A1) (A2) (A1)
                 (B2) (A1) (B2) (A1) (A2) (B1) (B2) (A1) (B2) (A1)
                 (B2) (A2) (B2) (B2) (A1) (A1) (B1) (A1) (B2) (B2)
                 (A1) (A2) (A1) (B2) (A1) (B2) (B2) (A1) (B2) (A1)
                 (A1) (B2) (B2) (A1) (B2) (A1) (B1) (B1) (B2) (A2)
                 (A2) (B1) (B2) (A1) (B2) (A1) (B1) (A1) (A2) (A1)
                 (B2) (B1) (A2) (B2) (B1) (A1) (B2) (A2) (B1) (B2)
                 (A2) (B1) (A2) (B1) (A2) (B1) (B2) (A1) (A1) (B2)
                 (B2) (A1) (A1) (A1) (B2) (B2) (A1) (A2) (B2) (B1)
                 (A1) (A1) (A2) (A1) (B2) (B2) (B2) (A1) (B1) (A1)
                 (B2) (A1) (A1) (B2) (A2) (B2) (A1) (A1) (B1) (B2)
                 (A1) (A1) (B2) (A2) (B1) (B2) (B2) (A1) (A2) (B2)
                 (A1) (B1) (A2) (B1) (B2) (A1) (A2) (B1) (B2) (B1)
                 (A2) (B1) (A2) (A2) (A1) (B1) (A2) (B2) (A1) (A1)
                 (B2) (B2) (A1) (A1) (B2) (A2) (B1) (B2) (A1) (B2)
                 (B2) (B1) (A1) (A2) (A1) (B2) (A1) (A2) (B2) (A1)
                 (B2) (B2) (A1) (A1) (B2) (B2) (A1) (B2) (B2) (A1)
                 (A1) (B2) (B2)
 The electronic state of the initial guess is 1-A1.
 Requested convergence on RMS density matrix=1.00D-08 within 128 cycles.
 Requested convergence on MAX density matrix=1.00D-06.
 Requested convergence on             energy=1.00D-06.
 No special actions if energy rises.
 Integral accuracy reduced to 1.0D-05 until final iterations.
 Initial convergence to 1.0D-05 achieved.  Increase integral accuracy.
 SCF Done:  E(RB3LYP) =  -846.273680080     A.U. after   14 cycles
            NFock= 14  Conv=0.84D-08     -V/T= 2.0106

 **********************************************************************

            Population analysis using the SCF Density.

 **********************************************************************

 Orbital symmetries:
       Occupied  (A1) (B2) (B2) (A1) (B2) (A1) (B2) (A1) (B2) (A1)
                 (B2) (A1) (A1) (B2) (A1) (B2) (B2) (A1) (B2) (A1)
                 (B2) (A1) (A1) (B2) (A1) (B2) (A1) (B2) (A1) (A1)
                 (B2) (B2) (A1) (A1) (B2) (A1) (B2) (B2) (A1) (B2)
                 (A1) (A1) (A1) (B2) (B2) (A1) (B2) (A1) (B2) (A1)
                 (A1) (B2) (B1) (A1) (B2) (B2) (A2) (A1) (A1) (B2)
                 (B1) (B2) (A1) (A1) (A2) (B2) (B1) (A2) (B1) (B1)
                 (A2) (A2) (B1)
       Virtual   (A2) (B1) (B1) (A2) (A2) (B1) (A1) (A1) (B2) (B1)
                 (A2) (B2) (A1) (A1) (B2) (B2) (A1) (A2) (B2) (A1)
                 (A1) (B1) (B2) (B2) (A1) (A2) (B2) (A1) (A1) (B2)
                 (A1) (B2) (B2) (A1) (B2) (A1) (A1) (A1) (B2) (B2)
                 (A1) (B2) (A1) (B2) (A1) (B2) (B2) (A1) (B2) (A1)
                 (B2) (A1) (A1) (B2) (B1) (A1) (A2) (A1) (B2) (A1)
                 (B2) (B1) (B2) (B2) (B1) (A1) (A1) (A2) (B2) (A2)
                 (A1) (B1) (B2) (A1) (B1) (A1) (A2) (B2) (A2) (B1)
                 (B1) (A2) (B2) (B1) (A1) (B2) (B1) (A2) (B2) (A1)
                 (A1) (B2) (A2) (A1) (B2) (A1) (B2) (A2) (B1) (A1)
                 (B2) (A1) (A1) (B2) (B2) (A1) (A1) (A2) (B2) (B2)
                 (B2) (B2) (B1) (A1) (A1) (B2) (A1) (B2) (A1) (A2)
                 (B2) (A1) (A1) (B2) (A1) (B2) (B2) (A1) (B2) (A1)
                 (A1) (B2) (B2) (A1) (B2) (A1) (B2) (B1) (B1) (A1)
                 (A2) (B2) (A2) (B1) (B2) (A1) (A1) (B1) (A1) (B2)
                 (A2) (B2) (B1) (A1) (B2) (A2) (B2) (B1) (A2) (B1)
                 (B2) (A2) (B1) (A2) (B1) (A2) (A1) (B1) (A1) (B2)
                 (B2) (A1) (A1) (A1) (B2) (A2) (B2) (B1) (A1) (B2)
                 (A1) (A2) (A1) (A1) (B2) (B2) (A1) (B2) (B1) (A1)
                 (B2) (A1) (A1) (B2) (A2) (B2) (A1) (B1) (A1) (B2)
                 (A1) (B2) (A1) (A2) (B1) (B2) (B2) (A1) (A2) (B2)
                 (A1) (B1) (A2) (B1) (B2) (A2) (B1) (A1) (B2) (B1)
                 (A2) (B1) (A2) (A2) (B1) (A1) (A2) (B2) (A1) (A1)
                 (B2) (B2) (A1) (A1) (A2) (B1) (B2) (B2) (A1) (B2)
                 (A2) (B1) (A1) (B2) (A1) (B2) (A2) (A1) (B2) (A1)
                 (B2) (B2) (A1) (A1) (B2) (B2) (A1) (B2) (B2) (A1)
                 (A1) (B2) (B2)
 The electronic state is 1-A1.
 Alpha  occ. eigenvalues --  -10.20349 -10.20334 -10.20203 -10.20200 -10.20161
 Alpha  occ. eigenvalues --  -10.20153 -10.19388 -10.19386 -10.19276 -10.19274
 Alpha  occ. eigenvalues --  -10.19061 -10.19048 -10.19024 -10.18996 -10.18995
 Alpha  occ. eigenvalues --  -10.18985 -10.18925 -10.18925 -10.18867 -10.18867
 Alpha  occ. eigenvalues --  -10.18854 -10.18854  -0.88819  -0.87271  -0.84487
 Alpha  occ. eigenvalues --   -0.81223  -0.80392  -0.77559  -0.76398  -0.74560
 Alpha  occ. eigenvalues --   -0.72986  -0.71318  -0.70287  -0.64120  -0.63438
 Alpha  occ. eigenvalues --   -0.62854  -0.61497  -0.59368  -0.59269  -0.54250
 Alpha  occ. eigenvalues --   -0.53665  -0.52442  -0.51445  -0.50105  -0.48935
 Alpha  occ. eigenvalues --   -0.47303  -0.47071  -0.45680  -0.43729  -0.43692
 Alpha  occ. eigenvalues --   -0.43127  -0.42823  -0.41717  -0.41272  -0.40693
 Alpha  occ. eigenvalues --   -0.40375  -0.39749  -0.39479  -0.38515  -0.37194
 Alpha  occ. eigenvalues --   -0.36419  -0.35281  -0.34634  -0.33748  -0.32500
 Alpha  occ. eigenvalues --   -0.32438  -0.32289  -0.29609  -0.27878  -0.25918
 Alpha  occ. eigenvalues --   -0.24032  -0.22236  -0.20386
 Alpha virt. eigenvalues --   -0.06263  -0.05362  -0.03262  -0.01538   0.00965
 Alpha virt. eigenvalues --    0.02828   0.06186   0.06320   0.06515   0.07389
 Alpha virt. eigenvalues --    0.07712   0.08216   0.08545   0.10464   0.10919
 Alpha virt. eigenvalues --    0.12242   0.12871   0.13155   0.14693   0.15108
 Alpha virt. eigenvalues --    0.17883   0.18938   0.20120   0.22075   0.22404
 Alpha virt. eigenvalues --    0.23522   0.23805   0.24332   0.25000   0.25924
 Alpha virt. eigenvalues --    0.26772   0.27084   0.28365   0.28831   0.29698
 Alpha virt. eigenvalues --    0.30148   0.30608   0.31081   0.32007   0.33698
 Alpha virt. eigenvalues --    0.33724   0.33988   0.35259   0.35950   0.36487
 Alpha virt. eigenvalues --    0.36654   0.37629   0.38080   0.40128   0.40433
 Alpha virt. eigenvalues --    0.41469   0.42290   0.44189   0.44535   0.44547
 Alpha virt. eigenvalues --    0.44728   0.45792   0.45979   0.46029   0.46547
 Alpha virt. eigenvalues --    0.47000   0.47788   0.48303   0.48344   0.48529
 Alpha virt. eigenvalues --    0.48969   0.49438   0.49871   0.49989   0.51022
 Alpha virt. eigenvalues --    0.51266   0.52315   0.53748   0.54437   0.55181
 Alpha virt. eigenvalues --    0.55816   0.55849   0.57200   0.58287   0.58631
 Alpha virt. eigenvalues --    0.60075   0.60681   0.61281   0.62037   0.64384
 Alpha virt. eigenvalues --    0.65240   0.65270   0.65585   0.66084   0.66888
 Alpha virt. eigenvalues --    0.67685   0.67705   0.68788   0.68867   0.69002
 Alpha virt. eigenvalues --    0.69409   0.70842   0.71660   0.71824   0.71994
 Alpha virt. eigenvalues --    0.72299   0.72867   0.73986   0.74500   0.75175
 Alpha virt. eigenvalues --    0.75222   0.76117   0.76297   0.76312   0.78370
 Alpha virt. eigenvalues --    0.78842   0.79569   0.79841   0.80102   0.81319
 Alpha virt. eigenvalues --    0.82494   0.82911   0.83767   0.84326   0.86136
 Alpha virt. eigenvalues --    0.86617   0.88523   0.89247   0.89711   0.93137
 Alpha virt. eigenvalues --    0.97977   0.98717   0.99149   1.01521   1.07443
 Alpha virt. eigenvalues --    1.09144   1.10261   1.12546   1.13611   1.13933
 Alpha virt. eigenvalues --    1.15773   1.20189   1.21149   1.22175   1.23392
 Alpha virt. eigenvalues --    1.23623   1.24378   1.24846   1.25654   1.27436
 Alpha virt. eigenvalues --    1.28460   1.30130   1.32992   1.33898   1.35425
 Alpha virt. eigenvalues --    1.36743   1.36962   1.38831   1.39011   1.39178
 Alpha virt. eigenvalues --    1.40533   1.42361   1.43300   1.45528   1.45733
 Alpha virt. eigenvalues --    1.45820   1.47660   1.48085   1.48525   1.49013
 Alpha virt. eigenvalues --    1.49778   1.50301   1.50401   1.52790   1.54647
 Alpha virt. eigenvalues --    1.56919   1.67651   1.69919   1.71352   1.72242
 Alpha virt. eigenvalues --    1.73580   1.73601   1.74304   1.74604   1.76059
 Alpha virt. eigenvalues --    1.79215   1.79642   1.79977   1.83486   1.83726
 Alpha virt. eigenvalues --    1.85530   1.85876   1.86410   1.87793   1.89754
 Alpha virt. eigenvalues --    1.89869   1.92203   1.94442   1.94875   1.96157
 Alpha virt. eigenvalues --    2.01143   2.01566   2.03172   2.03603   2.05643
 Alpha virt. eigenvalues --    2.08359   2.09024   2.09256   2.09511   2.11459
 Alpha virt. eigenvalues --    2.14016   2.14538   2.14879   2.15065   2.17106
 Alpha virt. eigenvalues --    2.18045   2.18299   2.20112   2.20301   2.22124
 Alpha virt. eigenvalues --    2.26194   2.26286   2.26695   2.26764   2.28884
 Alpha virt. eigenvalues --    2.29289   2.33537   2.34188   2.35531   2.37293
 Alpha virt. eigenvalues --    2.37548   2.37874   2.40653   2.41963   2.47771
 Alpha virt. eigenvalues --    2.48951   2.53825   2.54410   2.55833   2.58535
 Alpha virt. eigenvalues --    2.59674   2.60040   2.61511   2.62307   2.64784
 Alpha virt. eigenvalues --    2.65681   2.65702   2.66342   2.66467   2.68845
 Alpha virt. eigenvalues --    2.69330   2.70040   2.70610   2.76232   2.79110
 Alpha virt. eigenvalues --    2.80662   2.82511   2.86355   2.89552   2.94056
 Alpha virt. eigenvalues --    3.01534   3.04144   3.05570   3.28445   3.31333
 Alpha virt. eigenvalues --    3.42454   3.43656   3.54577
          Condensed to atoms (all electrons):
               1          2          3          4          5          6
     1  C    5.240210   0.158861   0.145533  -0.156470   0.154498   0.195218
     2  C    0.158861   5.213100   0.248301   0.123034  -0.173105   0.151034
     3  C    0.145533   0.248301   5.442153   0.254426   0.023976  -0.175482
     4  C   -0.156470   0.123034   0.254426   5.554856   0.052980   0.045733
     5  C    0.154498  -0.173105   0.023976   0.052980   5.505646   0.217296
     6  C    0.195218   0.151034  -0.175482   0.045733   0.217296   5.467169
     7  C    0.022237  -0.002164   0.029105   0.027662   0.162650  -0.162664
     8  C   -0.001397   0.000151  -0.004025  -0.139278   0.155489   0.019281
     9  C   -0.000056   0.000488   0.019731   0.000161  -0.174651  -0.000598
    10  C   -0.004492   0.022216  -0.148111   0.230177   0.016784   0.026197
    11  C    0.000018   0.000248  -0.030353  -0.147163   0.026581  -0.000375
    12  C    0.000007  -0.000098   0.001020   0.022752   0.000274  -0.000005
    13  C   -0.000001   0.000007  -0.000087  -0.003517  -0.000418   0.000003
    14  C    0.000000  -0.000000  -0.000001   0.000076  -0.000000  -0.000000
    15  C    0.000000   0.000000  -0.000000  -0.000001   0.000000   0.000000
    16  C    0.000000  -0.000000   0.000000  -0.000000   0.000000  -0.000000
    17  C   -0.000000   0.000000   0.000000   0.000000  -0.000000   0.000000
    18  C    0.000000  -0.000000   0.000000  -0.000000   0.000000  -0.000000
    19  C   -0.000000   0.000000   0.000000  -0.000000  -0.000001   0.000000
    20  C    0.000000  -0.000000  -0.000000  -0.000000   0.000009  -0.000000
    21  C    0.000000  -0.000000   0.000008  -0.000067  -0.000084  -0.000002
    22  C   -0.000002   0.000001   0.000026   0.025625  -0.004130   0.000071
    23  H    0.436591  -0.084701   0.015146  -0.001166   0.015693  -0.078875
    24  H   -0.086720   0.436669  -0.074701   0.015817  -0.001745   0.015678
    25  H    0.015861  -0.082264   0.416253  -0.046820   0.019761  -0.001914
    26  H   -0.083494   0.016386  -0.002351   0.017031  -0.080816   0.441446
    27  H    0.001016  -0.000066  -0.000339   0.016572  -0.091329  -0.020186
    28  H    0.000017  -0.000002   0.000045  -0.001716   0.017480  -0.000631
    29  H   -0.000068   0.001335   0.009121  -0.039344  -0.000962   0.000038
    30  H    0.000000  -0.000001  -0.000004  -0.000402   0.000011  -0.000000
    31  H   -0.000000   0.000000   0.000000  -0.000001  -0.000000  -0.000000
    32  H    0.000000  -0.000000  -0.000000   0.000000  -0.000000  -0.000000
    33  H    0.000000  -0.000000  -0.000000   0.000000   0.000000  -0.000000
    34  H    0.000000   0.000000   0.000000  -0.000000   0.000000  -0.000000
    35  H   -0.000000  -0.000000   0.000000  -0.000000   0.000000  -0.000000
    36  H   -0.000000   0.000000   0.000000   0.000035  -0.000091   0.000000
               7          8          9         10         11         12
     1  C    0.022237  -0.001397  -0.000056  -0.004492   0.000018   0.000007
     2  C   -0.002164   0.000151   0.000488   0.022216   0.000248  -0.000098
     3  C    0.029105  -0.004025   0.019731  -0.148111  -0.030353   0.001020
     4  C    0.027662  -0.139278   0.000161   0.230177  -0.147163   0.022752
     5  C    0.162650   0.155489  -0.174651   0.016784   0.026581   0.000274
     6  C   -0.162664   0.019281  -0.000598   0.026197  -0.000375  -0.000005
     7  C    5.483780   0.230169   0.135762  -0.151088  -0.003824  -0.000107
     8  C    0.230169   5.504921   0.186690   0.004400   0.029602  -0.003736
     9  C    0.135762   0.186690   5.613843   0.140596   0.001850  -0.152238
    10  C   -0.151088   0.004400   0.140596   5.619889   0.190275   0.133060
    11  C   -0.003824   0.029602   0.001850   0.190275   5.485602   0.262517
    12  C   -0.000107  -0.003736  -0.152238   0.133060   0.262517   5.485602
    13  C    0.000451   0.023124   0.011015  -0.175439   0.133060   0.190275
    14  C   -0.000000  -0.000067   0.025625  -0.003517   0.022752  -0.147163
    15  C   -0.000000   0.000008   0.000026  -0.000087   0.001020  -0.030353
    16  C   -0.000000  -0.000000   0.000001   0.000007  -0.000098   0.000248
    17  C    0.000000   0.000000  -0.000002  -0.000001   0.000007   0.000018
    18  C   -0.000000  -0.000002   0.000071   0.000003  -0.000005  -0.000375
    19  C    0.000009  -0.000084  -0.004130  -0.000418   0.000274   0.026581
    20  C   -0.000115   0.001105   0.022414   0.000451  -0.000107  -0.003824
    21  C    0.001105  -0.030672  -0.147640   0.023124  -0.003736   0.029602
    22  C    0.022414  -0.147640   0.252999   0.011015  -0.152238   0.001850
    23  H   -0.000560   0.000010  -0.000000   0.000055  -0.000000  -0.000000
    24  H    0.000028  -0.000001   0.000007  -0.000256   0.000002  -0.000001
    25  H   -0.000294  -0.000014  -0.001717  -0.041875   0.011987   0.001640
    26  H   -0.022651   0.001096  -0.000071  -0.000150   0.000010  -0.000000
    27  H    0.443254  -0.075875   0.017005  -0.001959   0.000047  -0.000001
    28  H   -0.079611   0.421673  -0.054751   0.018779  -0.000319  -0.000028
    29  H   -0.000055  -0.000322   0.018193  -0.062255   0.425548  -0.075502
    30  H   -0.000001   0.000037  -0.001871   0.017748  -0.075502   0.425548
    31  H    0.000000   0.000001   0.000033  -0.000060   0.001640   0.011987
    32  H   -0.000000   0.000000  -0.000000   0.000000  -0.000001   0.000002
    33  H   -0.000000  -0.000000   0.000000   0.000000  -0.000000  -0.000000
    34  H    0.000000  -0.000000  -0.000001   0.000000  -0.000000   0.000010
    35  H   -0.000001   0.000007  -0.000338   0.000009  -0.000001   0.000047
    36  H    0.001810   0.010725  -0.041918  -0.001497  -0.000028  -0.000319
              13         14         15         16         17         18
     1  C   -0.000001   0.000000   0.000000   0.000000  -0.000000   0.000000
     2  C    0.000007  -0.000000   0.000000  -0.000000   0.000000  -0.000000
     3  C   -0.000087  -0.000001  -0.000000   0.000000   0.000000   0.000000
     4  C   -0.003517   0.000076  -0.000001  -0.000000   0.000000  -0.000000
     5  C   -0.000418  -0.000000   0.000000   0.000000  -0.000000   0.000000
     6  C    0.000003  -0.000000   0.000000  -0.000000   0.000000  -0.000000
     7  C    0.000451  -0.000000  -0.000000  -0.000000   0.000000  -0.000000
     8  C    0.023124  -0.000067   0.000008  -0.000000   0.000000  -0.000002
     9  C    0.011015   0.025625   0.000026   0.000001  -0.000002   0.000071
    10  C   -0.175439  -0.003517  -0.000087   0.000007  -0.000001   0.000003
    11  C    0.133060   0.022752   0.001020  -0.000098   0.000007  -0.000005
    12  C    0.190275  -0.147163  -0.030353   0.000248   0.000018  -0.000375
    13  C    5.619889   0.230177  -0.148111   0.022216  -0.004492   0.026197
    14  C    0.230177   5.554856   0.254426   0.123034  -0.156470   0.045733
    15  C   -0.148111   0.254426   5.442153   0.248301   0.145533  -0.175482
    16  C    0.022216   0.123034   0.248301   5.213100   0.158861   0.151034
    17  C   -0.004492  -0.156470   0.145533   0.158861   5.240210   0.195218
    18  C    0.026197   0.045733  -0.175482   0.151034   0.195218   5.467169
    19  C    0.016784   0.052980   0.023976  -0.173105   0.154498   0.217296
    20  C   -0.151088   0.027662   0.029105  -0.002164   0.022237  -0.162664
    21  C    0.004400  -0.139278  -0.004025   0.000151  -0.001397   0.019281
    22  C    0.140596   0.000161   0.019731   0.000488  -0.000056  -0.000598
    23  H    0.000000   0.000000  -0.000000  -0.000000   0.000000  -0.000000
    24  H    0.000000   0.000000  -0.000000  -0.000000   0.000000  -0.000000
    25  H   -0.000060  -0.000001   0.000000   0.000000  -0.000000  -0.000000
    26  H    0.000000  -0.000000   0.000000   0.000000   0.000000  -0.000000
    27  H    0.000009  -0.000000   0.000000  -0.000000  -0.000000  -0.000000
    28  H   -0.001497   0.000035   0.000000   0.000000  -0.000000   0.000000
    29  H    0.017748  -0.000402  -0.000004  -0.000001   0.000000  -0.000000
    30  H   -0.062255  -0.039344   0.009121   0.001335  -0.000068   0.000038
    31  H   -0.041875  -0.046820   0.416253  -0.082264   0.015861  -0.001914
    32  H   -0.000256   0.015817  -0.074701   0.436669  -0.086720   0.015678
    33  H    0.000055  -0.001166   0.015146  -0.084701   0.436591  -0.078875
    34  H   -0.000150   0.017031  -0.002351   0.016386  -0.083494   0.441446
    35  H   -0.001959   0.016572  -0.000339  -0.000066   0.001016  -0.020186
    36  H    0.018779  -0.001716   0.000045  -0.000002   0.000017  -0.000631
              19         20         21         22         23         24
     1  C   -0.000000   0.000000   0.000000  -0.000002   0.436591  -0.086720
     2  C    0.000000  -0.000000  -0.000000   0.000001  -0.084701   0.436669
     3  C    0.000000  -0.000000   0.000008   0.000026   0.015146  -0.074701
     4  C   -0.000000  -0.000000  -0.000067   0.025625  -0.001166   0.015817
     5  C   -0.000001   0.000009  -0.000084  -0.004130   0.015693  -0.001745
     6  C    0.000000  -0.000000  -0.000002   0.000071  -0.078875   0.015678
     7  C    0.000009  -0.000115   0.001105   0.022414  -0.000560   0.000028
     8  C   -0.000084   0.001105  -0.030672  -0.147640   0.000010  -0.000001
     9  C   -0.004130   0.022414  -0.147640   0.252999  -0.000000   0.000007
    10  C   -0.000418   0.000451   0.023124   0.011015   0.000055  -0.000256
    11  C    0.000274  -0.000107  -0.003736  -0.152238  -0.000000   0.000002
    12  C    0.026581  -0.003824   0.029602   0.001850  -0.000000  -0.000001
    13  C    0.016784  -0.151088   0.004400   0.140596   0.000000   0.000000
    14  C    0.052980   0.027662  -0.139278   0.000161   0.000000   0.000000
    15  C    0.023976   0.029105  -0.004025   0.019731  -0.000000  -0.000000
    16  C   -0.173105  -0.002164   0.000151   0.000488  -0.000000  -0.000000
    17  C    0.154498   0.022237  -0.001397  -0.000056   0.000000   0.000000
    18  C    0.217296  -0.162664   0.019281  -0.000598  -0.000000  -0.000000
    19  C    5.505646   0.162650   0.155489  -0.174651   0.000000  -0.000000
    20  C    0.162650   5.483780   0.230169   0.135762  -0.000000  -0.000000
    21  C    0.155489   0.230169   5.504921   0.186690  -0.000000   0.000000
    22  C   -0.174651   0.135762   0.186690   5.613843   0.000000  -0.000000
    23  H    0.000000  -0.000000  -0.000000   0.000000   0.672182  -0.012297
    24  H   -0.000000  -0.000000   0.000000  -0.000000  -0.012297   0.671064
    25  H   -0.000000   0.000000   0.000001   0.000033  -0.000354  -0.013568
    26  H    0.000000   0.000000  -0.000000  -0.000001  -0.012533  -0.000343
    27  H    0.000000  -0.000001   0.000007  -0.000338  -0.000019  -0.000001
    28  H   -0.000091   0.001810   0.010725  -0.041918  -0.000000   0.000000
    29  H    0.000011  -0.000001   0.000037  -0.001871  -0.000000   0.000034
    30  H   -0.000962  -0.000055  -0.000322   0.018193  -0.000000  -0.000000
    31  H    0.019761  -0.000294  -0.000014  -0.001717  -0.000000  -0.000000
    32  H   -0.001745   0.000028  -0.000001   0.000007   0.000000   0.000000
    33  H    0.015693  -0.000560   0.000010  -0.000000  -0.000000   0.000000
    34  H   -0.080816  -0.022651   0.001096  -0.000071  -0.000000   0.000000
    35  H   -0.091329   0.443254  -0.075875   0.017005  -0.000000   0.000000
    36  H    0.017480  -0.079611   0.421673  -0.054751  -0.000000   0.000000
              25         26         27         28         29         30
     1  C    0.015861  -0.083494   0.001016   0.000017  -0.000068   0.000000
     2  C   -0.082264   0.016386  -0.000066  -0.000002   0.001335  -0.000001
     3  C    0.416253  -0.002351  -0.000339   0.000045   0.009121  -0.000004
     4  C   -0.046820   0.017031   0.016572  -0.001716  -0.039344  -0.000402
     5  C    0.019761  -0.080816  -0.091329   0.017480  -0.000962   0.000011
     6  C   -0.001914   0.441446  -0.020186  -0.000631   0.000038  -0.000000
     7  C   -0.000294  -0.022651   0.443254  -0.079611  -0.000055  -0.000001
     8  C   -0.000014   0.001096  -0.075875   0.421673  -0.000322   0.000037
     9  C   -0.001717  -0.000071   0.017005  -0.054751   0.018193  -0.001871
    10  C   -0.041875  -0.000150  -0.001959   0.018779  -0.062255   0.017748
    11  C    0.011987   0.000010   0.000047  -0.000319   0.425548  -0.075502
    12  C    0.001640  -0.000000  -0.000001  -0.000028  -0.075502   0.425548
    13  C   -0.000060   0.000000   0.000009  -0.001497   0.017748  -0.062255
    14  C   -0.000001  -0.000000  -0.000000   0.000035  -0.000402  -0.039344
    15  C    0.000000   0.000000   0.000000   0.000000  -0.000004   0.009121
    16  C    0.000000   0.000000  -0.000000   0.000000  -0.000001   0.001335
    17  C   -0.000000   0.000000  -0.000000  -0.000000   0.000000  -0.000068
    18  C   -0.000000  -0.000000  -0.000000   0.000000  -0.000000   0.000038
    19  C   -0.000000   0.000000   0.000000  -0.000091   0.000011  -0.000962
    20  C    0.000000   0.000000  -0.000001   0.001810  -0.000001  -0.000055
    21  C    0.000001  -0.000000   0.000007   0.010725   0.000037  -0.000322
    22  C    0.000033  -0.000001  -0.000338  -0.041918  -0.001871   0.018193
    23  H   -0.000354  -0.012533  -0.000019  -0.000000  -0.000000  -0.000000
    24  H   -0.013568  -0.000343  -0.000001   0.000000   0.000034  -0.000000
    25  H    0.679479   0.000028   0.000012   0.000000   0.000029   0.000026
    26  H    0.000028   0.678708   0.006630  -0.000030   0.000001   0.000000
    27  H    0.000012   0.006630   0.683088  -0.014692   0.000000   0.000000
    28  H    0.000000  -0.000030  -0.014692   0.685293   0.000011   0.000000
    29  H    0.000029   0.000001   0.000000   0.000011   0.688242  -0.015882
    30  H    0.000026   0.000000   0.000000   0.000000  -0.015882   0.688242
    31  H    0.000000   0.000000   0.000000  -0.000000   0.000026   0.000029
    32  H   -0.000000   0.000000   0.000000   0.000000  -0.000000   0.000034
    33  H   -0.000000  -0.000000  -0.000000  -0.000000  -0.000000  -0.000000
    34  H    0.000000  -0.000000  -0.000000   0.000000   0.000000   0.000001
    35  H    0.000000  -0.000000  -0.000000   0.000047   0.000000   0.000000
    36  H   -0.000000   0.000000   0.000047  -0.000645   0.000000   0.000011
              31         32         33         34         35         36
     1  C   -0.000000   0.000000   0.000000   0.000000  -0.000000  -0.000000
     2  C    0.000000  -0.000000  -0.000000   0.000000  -0.000000   0.000000
     3  C    0.000000  -0.000000  -0.000000   0.000000   0.000000   0.000000
     4  C   -0.000001   0.000000   0.000000  -0.000000  -0.000000   0.000035
     5  C   -0.000000  -0.000000   0.000000   0.000000   0.000000  -0.000091
     6  C   -0.000000  -0.000000  -0.000000  -0.000000  -0.000000   0.000000
     7  C    0.000000  -0.000000  -0.000000   0.000000  -0.000001   0.001810
     8  C    0.000001   0.000000  -0.000000  -0.000000   0.000007   0.010725
     9  C    0.000033  -0.000000   0.000000  -0.000001  -0.000338  -0.041918
    10  C   -0.000060   0.000000   0.000000   0.000000   0.000009  -0.001497
    11  C    0.001640  -0.000001  -0.000000  -0.000000  -0.000001  -0.000028
    12  C    0.011987   0.000002  -0.000000   0.000010   0.000047  -0.000319
    13  C   -0.041875  -0.000256   0.000055  -0.000150  -0.001959   0.018779
    14  C   -0.046820   0.015817  -0.001166   0.017031   0.016572  -0.001716
    15  C    0.416253  -0.074701   0.015146  -0.002351  -0.000339   0.000045
    16  C   -0.082264   0.436669  -0.084701   0.016386  -0.000066  -0.000002
    17  C    0.015861  -0.086720   0.436591  -0.083494   0.001016   0.000017
    18  C   -0.001914   0.015678  -0.078875   0.441446  -0.020186  -0.000631
    19  C    0.019761  -0.001745   0.015693  -0.080816  -0.091329   0.017480
    20  C   -0.000294   0.000028  -0.000560  -0.022651   0.443254  -0.079611
    21  C   -0.000014  -0.000001   0.000010   0.001096  -0.075875   0.421673
    22  C   -0.001717   0.000007  -0.000000  -0.000071   0.017005  -0.054751
    23  H   -0.000000   0.000000  -0.000000  -0.000000  -0.000000  -0.000000
    24  H   -0.000000   0.000000   0.000000   0.000000   0.000000   0.000000
    25  H    0.000000  -0.000000  -0.000000   0.000000   0.000000  -0.000000
    26  H    0.000000   0.000000  -0.000000  -0.000000  -0.000000   0.000000
    27  H    0.000000   0.000000  -0.000000  -0.000000  -0.000000   0.000047
    28  H   -0.000000   0.000000  -0.000000   0.000000   0.000047  -0.000645
    29  H    0.000026  -0.000000  -0.000000   0.000000   0.000000   0.000000
    30  H    0.000029   0.000034  -0.000000   0.000001   0.000000   0.000011
    31  H    0.679479  -0.013568  -0.000354   0.000028   0.000012   0.000000
    32  H   -0.013568   0.671064  -0.012297  -0.000343  -0.000001   0.000000
    33  H   -0.000354  -0.012297   0.672182  -0.012533  -0.000019  -0.000000
    34  H    0.000028  -0.000343  -0.012533   0.678708   0.006630  -0.000030
    35  H    0.000012  -0.000001  -0.000019   0.006630   0.683088  -0.014692
    36  H    0.000000   0.000000  -0.000000  -0.000030  -0.014692   0.685293
 Mulliken charges:
               1
     1  C   -0.037366
     2  C   -0.029429
     3  C   -0.169392
     4  C    0.149012
     5  C    0.158206
     6  C   -0.138433
     7  C   -0.137299
     8  C   -0.185374
     9  C    0.133471
    10  C    0.136421
    11  C   -0.179289
    12  C   -0.179289
    13  C    0.136421
    14  C    0.149012
    15  C   -0.169392
    16  C   -0.029429
    17  C   -0.037366
    18  C   -0.138433
    19  C    0.158206
    20  C   -0.137299
    21  C   -0.185374
    22  C    0.133471
    23  H    0.050830
    24  H    0.050335
    25  H    0.043770
    26  H    0.041105
    27  H    0.037121
    28  H    0.040017
    29  H    0.036295
    30  H    0.036295
    31  H    0.043770
    32  H    0.050335
    33  H    0.050830
    34  H    0.041105
    35  H    0.037121
    36  H    0.040017
 Sum of Mulliken charges =  -0.00000
 Mulliken charges with hydrogens summed into heavy atoms:
               1
     1  C    0.013464
     2  C    0.020906
     3  C   -0.125622
     4  C    0.149012
     5  C    0.158206
     6  C   -0.097328
     7  C   -0.100178
     8  C   -0.145357
     9  C    0.133471
    10  C    0.136421
    11  C   -0.142994
    12  C   -0.142994
    13  C    0.136421
    14  C    0.149012
    15  C   -0.125622
    16  C    0.020906
    17  C    0.013464
    18  C   -0.097328
    19  C    0.158206
    20  C   -0.100178
    21  C   -0.145357
    22  C    0.133471
 Electronic spatial extent (au):  <R**2>=           7979.3138
 Charge=              0.0000 electrons
 Dipole moment (field-independent basis, Debye):
    X=              0.0000    Y=              0.0000    Z=              0.0521  Tot=              0.0521
 Quadrupole moment (field-independent basis, Debye-Ang):
   XX=           -134.9277   YY=           -109.2940   ZZ=           -111.6371
   XY=              0.0000   XZ=             -0.0000   YZ=             -0.0000
 Traceless Quadrupole moment (field-independent basis, Debye-Ang):
   XX=            -16.3081   YY=              9.3256   ZZ=              6.9825
   XY=              0.0000   XZ=             -0.0000   YZ=             -0.0000
 Octapole moment (field-independent basis, Debye-Ang**2):
  XXX=              0.0000  YYY=             -0.0000  ZZZ=              0.7139  XYY=              0.0000
  XXY=             -0.0000  XXZ=             -0.1471  XZZ=              0.0000  YZZ=             -0.0000
  YYZ=              2.6177  XYZ=             -0.0000
 Hexadecapole moment (field-independent basis, Debye-Ang**3):
 XXXX=           -148.9498 YYYY=          -8568.4118 ZZZZ=          -1460.7435 XXXY=             -0.0000
 XXXZ=              0.0000 YYYX=             -0.0000 YYYZ=              0.0000 ZZZX=              0.0000
 ZZZY=              0.0000 XXYY=          -1769.0571 XXZZ=           -316.3599 YYZZ=          -1677.3642
 XXYZ=             -0.0000 YYXZ=             -0.0000 ZZXY=             -0.0000
 N-N= 1.533265749266D+03 E-N=-5.024148622714D+03  KE= 8.373907624446D+02
 Symmetry A1   KE= 4.093732705832D+02
 Symmetry A2   KE= 1.086065362048D+01
 Symmetry B1   KE= 1.269398407501D+01
 Symmetry B2   KE= 4.044628541658D+02
   4 Symmetry operations used in ECPInt.
 ECPInt:  NShTT=   12880 NPrTT=   51688 LenC2=   11551 LenP2D=   31582.
 LDataN:  DoStor=T MaxTD1= 5 Len=  102
 Calling FoFJK, ICntrl=      2127 FMM=F ISym2X=1 I1Cent= 0 IOpClX= 0 NMat=1 NMatS=1 NMatT=0.
 ***** Axes restored to original set *****
 -------------------------------------------------------------------
 Center     Atomic                   Forces (Hartrees/Bohr)
 Number     Number              X              Y              Z
 -------------------------------------------------------------------
      1        6          -0.000500866    0.020777865    0.006363918
      2        6           0.023310777   -0.009005100   -0.002123508
      3        6          -0.005684879   -0.003152745   -0.001123940
      4        6          -0.006818026   -0.012132147   -0.003911270
      5        6          -0.015662146   -0.003294304   -0.001441563
      6        6          -0.016779779   -0.012888222   -0.004417089
      7        6           0.046958735    0.018006067    0.006817296
      8        6          -0.026269086    0.016478477    0.004336138
      9        6           0.001186811   -0.004144150   -0.001239417
     10        6           0.002806189    0.000134428    0.000118375
     11        6           0.026510432   -0.011720456   -0.002869051
     12        6          -0.026647896   -0.011016786   -0.004113831
     13        6          -0.002804115    0.000208693   -0.000012999
     14        6           0.006670250   -0.012310695   -0.003595422
     15        6           0.005645851   -0.003302733   -0.000858615
     16        6          -0.023415923   -0.008386567   -0.003217683
     17        6           0.000752002    0.020761281    0.006393256
     18        6           0.016621268   -0.013330360   -0.003634954
     19        6           0.015619810   -0.003708391   -0.000709050
     20        6          -0.046733516    0.019246295    0.004623354
     21        6           0.026464116    0.015780435    0.005570963
     22        6          -0.001236726   -0.004112069   -0.001296168
     23        1          -0.005468329    0.000855493    0.000112323
     24        1          -0.001173919   -0.004675776   -0.001467469
     25        1           0.004879385   -0.002744767   -0.000708412
     26        1           0.001433464    0.004973980    0.001566134
     27        1          -0.003107242    0.002230498    0.000599257
     28        1           0.005279540    0.002040886    0.000771521
     29        1          -0.004225873   -0.002093133   -0.000758604
     30        1           0.004199890   -0.002204667   -0.000561302
     31        1          -0.004911790   -0.002615159   -0.000937686
     32        1           0.001117199   -0.004706104   -0.001413819
     33        1           0.005477797    0.000710597    0.000368642
     34        1          -0.001373096    0.005011131    0.001500414
     35        1           0.003133713    0.002147885    0.000745398
     36        1          -0.005254019    0.002180321    0.000524862
 -------------------------------------------------------------------
 Cartesian Forces:  Max     0.046958735 RMS     0.011138516

 GradGradGradGradGradGradGradGradGradGradGradGradGradGradGradGradGradGrad
 Berny optimization.
 FormGI is forming the generalized inverse of G from B-inverse, IUseBI=4.
 Internal  Forces:  Max     0.033779148 RMS     0.006306225
 Search for a local minimum.
 Step number   1 out of a maximum of  216
 All quantities printed in internal units (Hartrees-Bohrs-Radians)
 Mixed Optimization -- RFO/linear search
 Second derivative matrix not updated -- first step.
 ITU=  0
     Eigenvalues ---    0.01538   0.01623   0.01704   0.01743   0.01752
     Eigenvalues ---    0.01790   0.01803   0.01839   0.01878   0.01921
     Eigenvalues ---    0.01932   0.01945   0.01976   0.01978   0.02025
     Eigenvalues ---    0.02027   0.02058   0.02070   0.02071   0.02072
     Eigenvalues ---    0.02095   0.02096   0.02097   0.02121   0.02121
     Eigenvalues ---    0.02186   0.02186   0.02193   0.02193   0.02204
     Eigenvalues ---    0.02204   0.02250   0.02250   0.16000   0.16000
     Eigenvalues ---    0.16000   0.16000   0.16000   0.16000   0.16000
     Eigenvalues ---    0.16000   0.16000   0.16000   0.16000   0.16000
     Eigenvalues ---    0.16000   0.16000   0.22000   0.22000   0.22345
     Eigenvalues ---    0.22415   0.22575   0.22722   0.22725   0.24337
     Eigenvalues ---    0.24344   0.24480   0.24639   0.24699   0.25000
     Eigenvalues ---    0.25000   0.25000   0.35017   0.35017   0.35027
     Eigenvalues ---    0.35027   0.35186   0.35186   0.35239   0.35239
     Eigenvalues ---    0.35276   0.35276   0.35284   0.35284   0.35312
     Eigenvalues ---    0.35312   0.36263   0.36619   0.36979   0.37563
     Eigenvalues ---    0.38436   0.39656   0.40044   0.40193   0.40737
     Eigenvalues ---    0.42584   0.42598   0.43516   0.43516   0.43976
     Eigenvalues ---    0.43981   0.45210   0.45240   0.45285   0.45304
     Eigenvalues ---    0.45668   0.46047   0.46052   0.46692   0.46710
     Eigenvalues ---    0.47525   0.47526
 RFO step:  Lambda=-2.05390371D-02 EMin= 1.53835479D-02
 Linear search not attempted -- first point.
 Iteration  1 RMS(Cart)=  0.04115574 RMS(Int)=  0.00028483
 Iteration  2 RMS(Cart)=  0.00050191 RMS(Int)=  0.00002458
 Iteration  3 RMS(Cart)=  0.00000006 RMS(Int)=  0.00002458
 ClnCor:  largest displacement from symmetrization is 6.63D-08 for atom    26.
 Variable       Old X    -DE/DX   Delta X   Delta X   Delta X     New X
                                 (Linear)    (Quad)   (Total)
    R1        2.61738   0.02325   0.00000   0.04582   0.04578   2.66316
    R2        2.62867  -0.00511   0.00000  -0.00987  -0.00985   2.61882
    R3        2.05288   0.00550   0.00000   0.01476   0.01476   2.06764
    R4        2.64402  -0.01028   0.00000  -0.02251  -0.02257   2.62145
    R5        2.05375   0.00478   0.00000   0.01282   0.01282   2.06657
    R6        2.68608  -0.00541   0.00000  -0.01282  -0.01284   2.67324
    R7        2.05216   0.00459   0.00000   0.01230   0.01230   2.06446
    R8        2.67159   0.01548   0.00000   0.03626   0.03630   2.70789
    R9        2.73576  -0.00018   0.00000  -0.00010  -0.00009   2.73567
   R10        2.65754   0.00949   0.00000   0.02139   0.02145   2.67899
   R11        2.62616   0.03378   0.00000   0.06959   0.06958   2.69574
   R12        2.05647   0.00389   0.00000   0.01051   0.01051   2.06698
   R13        2.63583  -0.02125   0.00000  -0.04408  -0.04409   2.59174
   R14        2.05631   0.00350   0.00000   0.00944   0.00944   2.06575
   R15        2.67052   0.01249   0.00000   0.02577   0.02577   2.69629
[...]
 1224,0.00008627,-0.00023677,0.00004629,-0.00001093,-0.00005686,-0.0000
 0102,-0.00000063,0.00000343,0.00000008,-0.00000056,0.00000087,0.000002
 03,-0.00000247,0.00002496,-0.00000130,0.00000035,0.00000096,0.00000020
 ,-0.00000083,0.00000387,-0.00000449,0.00000849,0.00000644,0.00001325,-
 0.00000019,-0.00001273,-0.00018081,0.00017927,0.00137514,0.03938366,0.
 07889144,0.04950615,-0.00001078,0.00000335,0.00000076,0.00000216,-0.00
 000270,-0.00000073,-0.00002228,0.00000650,0.00000142,0.00003820,-0.000
 00019,0.00000087,-0.00000232,0.00001840,0.00000580,-0.00000008,-0.0000
 1350,-0.00000414,-0.00001834,0.00001635,0.00000447,-0.00004852,-0.0000
 4542,-0.00001388,-0.00005164,0.00012680,0.00003794,-0.00001714,0.00005
 626,0.00001513,0.00004748,-0.00007939,-0.00002202,-0.00007066,0.000049
 52,0.00000797,0.00026359,0.00136445,0.00041881,-0.00512191,-0.00163393
 ,-0.00086665,-0.01166572,0.02733311,0.00796377,-0.13076047,0.11685384,
 0.03330391,0.01151054,-0.01417948,-0.00413013,-0.00094494,-0.00261229,
 -0.00098350,-0.00061487,-0.00058987,-0.00017981,0.00028974,-0.00008763
 ,0.00000422,-0.00016781,-0.00014763,-0.00005294,-0.00039742,0.00000438
 ,0.00000446,-0.00000399,-0.00000021,-0.00000019,-0.00000470,-0.0000033
 1,-0.00000119,0.00000447,-0.00000005,0.00000008,-0.00000138,0.00000308
 ,0.00000089,-0.00000989,0.00000271,0.00000028,0.00000657,0.00000169,0.
 00000058,-0.00002493,-0.00000592,-0.00000215,0.00002638,-0.00002383,-0
 .00000692,0.00119761,-0.00021404,0.00010349,0.13538222,0.00001006,0.00
 000366,0.00000173,0.00000410,-0.00000360,-0.00000058,0.00001045,-0.000
 00709,-0.00000146,-0.00001232,-0.00000316,-0.00000263,0.00001078,-0.00
 000306,0.00000182,-0.00000580,0.00001023,0.00000311,-0.00000268,-0.000
 00660,-0.00000259,0.00001967,0.00000340,0.00001712,-0.00005902,0.00001
 214,0.00000697,0.00001354,0.00003617,-0.00000711,0.00003456,-0.0000269
 5,0.00000431,0.00000411,-0.00001212,-0.00006269,-0.00003196,0.00006143
 ,-0.00006301,-0.00069233,0.00200986,-0.00190838,-0.00247127,0.00384346
 ,-0.00006607,0.11734938,-0.24693693,-0.06107389,0.01589390,-0.01615721
 ,-0.00557369,-0.00384155,-0.00234006,-0.00256306,-0.00083621,0.0003643
 5,0.00029156,0.00012222,-0.00006583,0.00024180,-0.00005510,-0.00002737
 ,-0.00004363,0.00006039,0.00005747,0.00017603,0.00000432,0.00000023,0.
 ,0.00000350,0.00000354,0.00000073,-0.00000458,-0.00000105,-0.00000077,
 0.00000147,-0.00000352,-0.00000126,0.00000475,-0.00000193,-0.00000357,
 -0.00000572,0.00000315,-0.00000049,0.00000725,0.00000339,0.00000516,0.
 00000675,-0.00001269,-0.00000742,0.00019680,0.00046027,0.00166894,-0.1
 2628810,0.25874110,0.00000282,0.00000155,-0.00000053,0.00000135,-0.000
 00077,-0.00000154,0.00000263,-0.00000156,-0.00000182,-0.00000285,-0.00
 000230,0.00000352,0.00000346,0.00000203,-0.00000730,-0.00000177,0.0000
 0290,0.00000043,-0.00000137,-0.00000207,0.00000093,0.00000609,0.000015
 33,-0.00004574,-0.00001910,0.00001208,-0.00001268,0.00000202,-0.000005
 94,0.00005878,0.00001295,0.00000118,-0.00003718,-0.00000597,-0.0000614
 5,0.00017347,-0.00000982,-0.00002463,0.00025600,-0.00057763,-0.0019342
 5,0.00755560,-0.00118457,0.00075294,0.00403603,0.03345601,-0.06108751,
 -0.05528954,0.00510077,-0.00640010,0.00159993,-0.00136082,-0.00252929,
 0.00485249,-0.00025542,0.00029833,-0.00057583,0.00006863,0.00023603,-0
 .00076829,-0.00002454,-0.00004618,0.00009501,0.00002165,0.00017449,-0.
 00045647,0.00000120,-0.00000013,0.00000063,0.00000090,0.00000054,0.000
 00168,-0.00000131,-0.00000064,0.00000080,0.00000039,-0.00000122,0.0000
 0037,0.00000091,-0.00000363,0.00000904,-0.00000169,-0.00000029,0.00000
 410,0.00000189,0.00000480,-0.00001124,0.00000246,-0.00000826,0.0000096
 3,0.00022960,0.00165765,-0.00444423,-0.03575082,0.06804704,0.04564876,
 -0.00000780,-0.00000176,-0.00000074,-0.00000337,-0.00000093,-0.0000002
 5,-0.00001483,0.00000265,0.00000041,0.00002326,0.00001085,0.00000338,-
 0.00000746,0.00001305,0.00000373,0.00000394,-0.00001315,-0.00000368,-0
 .00000459,0.00001170,0.00000316,-0.00002272,-0.00001120,-0.00000393,0.
 00001721,-0.00001448,-0.00000538,-0.00000522,-0.00000691,-0.00000207,-
 0.00000456,-0.00001718,-0.00000370,-0.00004589,-0.00002480,-0.00001000
 ,0.00004296,-0.00000506,0.00002343,0.00075019,-0.00001797,0.00003025,0
 .00064017,-0.00285510,-0.00101585,-0.01064444,0.00302555,0.00054549,-0
 .33685493,-0.00131875,-0.00862091,-0.01193388,-0.00281747,-0.00130368,
 0.00086349,0.00285330,0.00067071,-0.00060013,-0.00049649,-0.00017515,-
 0.00009489,0.00030652,0.00010497,0.00003540,0.00005130,0.00001411,-0.0
 0000618,-0.00000018,-0.00000029,-0.00000404,-0.00000420,-0.00000142,0.
 00000640,0.00000345,0.00000114,-0.00000188,0.00000486,0.00000142,-0.00
 000755,0.00000376,0.00000092,0.00000957,-0.00000843,-0.00000208,-0.000
 00814,-0.00000545,-0.00000187,0.00002135,0.00003918,0.00001084,-0.0005
 8375,0.00014289,0.00002388,0.00082698,-0.00017128,0.00006036,0.3566955
 1,0.00000081,-0.00000431,-0.00000116,-0.00000298,0.00000271,0.00000218
 ,0.00000554,-0.00000040,0.00000008,-0.00001146,0.00001069,-0.00000365,
 -0.00000342,-0.00001111,-0.00000430,0.00000365,0.00000426,0.00000416,0
 .00001068,0.00001455,0.00000139,-0.00000731,-0.00000008,0.00000128,0.0
 0005794,0.00004076,-0.00000159,-0.00000140,-0.00005780,-0.00001562,-0.
 00003870,0.00008878,0.00004511,0.00005919,-0.00005535,-0.00002795,-0.0
 0025158,0.00008836,0.00028611,0.00031310,-0.00096131,-0.00011727,-0.00
 167490,-0.00359198,-0.00290313,-0.02698177,0.00456914,-0.00035198,-0.0
 0168595,-0.05736276,-0.00603118,0.02721123,0.00488626,0.00100846,0.001
 78109,-0.00348235,-0.00357597,0.00089443,0.00067982,0.00016332,0.00029
 954,-0.00029328,0.00006891,-0.00014446,-0.00020071,-0.00009468,0.00000
 038,0.00000045,-0.00000063,0.00000033,0.00000034,-0.00000009,0.0000004
 2,0.00000153,-0.00000064,-0.00000016,-0.00000026,-0.00000031,0.0000010
 9,-0.00000026,-0.00000038,-0.00000402,0.00000969,0.00000562,0.00000288
 ,0.00000002,0.00000038,0.00002959,0.00008004,0.00000554,-0.00121817,0.
 00000882,-0.00007479,0.00070838,0.00079987,0.00127260,0.00120984,0.054
 12146,0.00000005,-0.00000123,-0.00000082,-0.00000088,0.00000223,-0.000
 00399,0.00000130,0.,-0.00000014,-0.00000347,-0.00000304,0.00002054,-0.
 00000132,-0.00000384,0.00000136,0.00000148,0.00000370,-0.00000779,0.00
 000285,0.00000142,0.00001150,-0.00000273,0.00000117,-0.00000461,0.0000
 1685,-0.00000358,0.00005049,-0.00000038,-0.00001577,-0.00001189,-0.000
 01031,0.00004570,-0.00004791,0.00001578,-0.00003026,0.00003216,-0.0000
 5224,0.00029288,-0.00077781,0.00013187,-0.00012637,-0.00058638,-0.0006
 5359,-0.00293556,0.00479717,-0.00866514,0.00047261,0.00320725,-0.00873
 362,-0.00602109,-0.03995285,0.00791351,0.00018328,0.00431063,0.0003416
 0,-0.00354651,0.00724807,0.00025179,0.00012510,0.00027313,0.00010283,0
 .00006910,-0.00046693,-0.00004597,-0.00008930,0.00006614,-0.00000012,-
 0.00000065,0.00000234,-0.00000003,-0.00000021,0.00000058,0.00000020,-0
 .00000056,0.00000349,-0.00000012,-0.00000017,0.00000069,0.00000010,-0.
 00000030,0.00000098,-0.00000073,0.00000550,-0.00000732,0.00000069,0.00
 000015,-0.00000090,0.00000789,0.00000580,0.00006665,-0.00039390,-0.000
 03739,0.00012111,0.00033037,0.00124843,-0.00289045,0.00946366,0.008720
 09,0.02875721,-0.00000956,-0.00000051,-0.00000040,0.00000051,0.0000060
 3,0.00000187,-0.00000905,-0.00000350,-0.00000124,0.00002302,0.00001103
 ,0.00000388,-0.00001180,0.00000055,-0.00000005,0.00000475,-0.00000313,
 -0.00000081,-0.00000598,0.00001535,0.00000461,-0.00003294,-0.00004170,
 -0.00001353,0.00005195,0.00012643,0.00003905,-0.00000028,0.00000663,0.
 00000224,-0.00001661,-0.00012396,-0.00003861,-0.00044342,0.00021732,0.
 00005052,-0.00010388,-0.00151979,-0.00047585,-0.00492553,0.00185766,0.
 00028962,-0.00059996,0.00077356,0.00023459,-0.00108814,0.00267925,0.00
 058222,0.01163849,0.01519761,0.00486133,-0.12132865,-0.10980747,-0.036
 00656,-0.01076903,-0.02655424,-0.00854892,0.00119860,-0.00215540,-0.00
 053210,0.00014906,0.00036957,0.00011820,0.00013562,-0.00017648,-0.0000
 4662,-0.00000193,0.00000021,0.,-0.00000143,-0.00000146,-0.00000051,0.0
 0000262,0.00000434,0.00000138,-0.00000241,0.00000231,0.00000062,-0.000
 00645,0.00000198,0.00000035,-0.00000111,0.00001475,0.00000437,-0.00004
 959,-0.00000283,-0.00000107,0.00002337,-0.00001116,-0.00000294,0.00003
 911,-0.00009084,0.00000301,0.00037965,0.00073281,0.00022930,0.00096526
 ,-0.00065339,-0.00004182,0.12502446,-0.00001026,0.00000144,0.00000034,
 -0.00000023,0.00000157,0.00000059,-0.00001311,0.00000208,0.00000119,0.
 00002630,0.00000775,0.00000158,-0.00000743,0.00001439,0.00000538,0.000
 00147,-0.00001347,-0.00000391,-0.00001354,0.00000061,0.00000052,-0.000
 01435,-0.00002592,-0.00000638,-0.00002327,-0.00000749,-0.00001619,-0.0
 0001612,0.00004065,0.00001445,0.00003309,-0.00002791,-0.00000883,-0.00
 006759,0.00001757,-0.00004114,0.00036295,-0.00003058,-0.00007207,0.000
 38136,0.00158686,-0.00112467,0.00058758,0.00038186,0.00028572,0.004149
 18,-0.00178509,-0.00278252,-0.01498954,-0.01667961,-0.00690929,-0.1099
 4441,-0.24916030,-0.06796748,0.00121447,0.00198887,-0.00049853,0.00183
 972,0.00020623,0.00119230,-0.00038955,0.00015376,0.00004395,0.00014077
 ,0.00023081,0.00011743,-0.00000480,-0.00000014,-0.00000040,-0.00000308
 ,-0.00000340,-0.00000135,0.00000460,0.00000220,0.00000053,-0.00000218,
 0.00000452,0.00000111,-0.00000717,0.00000409,0.00000016,0.00000277,-0.
 00000108,-0.00000169,-0.00000803,-0.00000746,0.00001042,0.00001561,0.0
 0000984,0.00000175,-0.00008334,-0.00015192,0.00028416,-0.00070183,-0.0
 0083833,-0.00034439,0.00007825,0.00063411,0.00167362,0.11790312,0.2630
 8138,-0.00000340,0.00000061,-0.00000051,-0.00000005,0.00000076,-0.0000
 0014,-0.00000419,0.00000145,-0.00000262,0.00000857,0.00000117,0.000005
 54,-0.00000250,0.00000560,-0.00000216,0.00000060,-0.00000403,-0.000001
 83,-0.00000426,0.00000131,-0.00000200,-0.00000513,-0.00000713,-0.00000
 876,-0.00000690,-0.00001208,0.00003929,-0.00000474,0.00001507,-0.00000
 337,0.00000959,-0.00001315,0.00000006,-0.00003693,-0.00003331,0.000134
 30,0.00010205,-0.00012380,0.00020150,-0.00016353,-0.00108410,0.0049478
 2,0.00017751,0.00029083,-0.00040223,0.00103341,-0.00282291,0.00681347,
 -0.00440449,-0.00607976,0.00250103,-0.03604860,-0.06796371,-0.05942353
 ,-0.00002543,-0.00126160,0.00333381,0.00069418,0.00108251,-0.00316211,
 -0.00011481,0.00006482,-0.00000758,0.00005076,0.00010872,-0.00010441,-
 0.00000155,-0.00000026,0.00000062,-0.00000100,-0.00000131,0.00000030,0
 .00000146,0.00000052,0.00000109,-0.00000076,0.00000123,0.00000107,-0.0
 0000246,0.00000041,0.00000299,0.00000069,-0.00000136,0.00000426,-0.000
 00267,0.00001057,-0.00003896,0.00000528,0.00000101,0.00000601,0.000005
 31,0.00028395,-0.00099783,-0.00021106,-0.00030497,0.00012142,0.0001827
 6,0.00165351,-0.00429880,0.03892436,0.07615991,0.04996177,-0.00001403,
 -0.00001485,-0.00000467,-0.00001915,-0.00000864,-0.00000318,-0.0000519
 1,0.00003875,0.00001166,-0.00002031,-0.00014118,-0.00004328,-0.0000169
 0,-0.00001522,-0.00000737,0.00002068,-0.00001110,-0.00000284,0.0000185
 6,0.00007207,0.00002357,-0.00003061,-0.00006467,-0.00002744,0.00014425
 ,-0.00140537,-0.00043425,-0.00040929,0.00005298,0.00002397,-0.00010536
 ,0.00009954,0.00002410,0.00020522,0.00000558,0.00003021,-0.00041716,0.
 00045122,0.00013896,-0.00158617,0.00230540,0.00055316,0.00047616,0.000
 61996,0.00020095,0.00021811,0.00014145,0.00005203,0.00011502,-0.000379
 41,-0.00011120,0.00096778,0.00152697,0.00056492,0.00990285,0.01326150,
 0.00423961,-0.12612391,-0.11329768,-0.03720227,-0.01190428,-0.02745118
 ,-0.00888604,-0.00481162,0.00219841,0.00029708,-0.00000761,-0.00000088
 ,-0.00000051,-0.00000998,-0.00000437,-0.00000189,0.00000864,-0.0000004
 0,0.,-0.00000639,0.00000744,0.00000203,-0.00002914,0.00000758,0.000002
 20,0.00002307,0.00002110,0.00000685,-0.00000167,-0.00001771,-0.0000087
 0,-0.00001933,-0.00005057,-0.00001701,-0.00011977,0.00019247,0.0000536
 4,-0.00001548,-0.00002829,-0.00001016,0.00002869,-0.00003067,-0.000011
 82,-0.00020520,-0.00038352,-0.00012783,0.13266177,-0.00001119,0.000003
 36,0.00000374,0.00000316,0.00000084,0.00000032,-0.00001503,-0.00000247
 ,0.00001219,0.00004097,-0.00000278,0.00000714,-0.00001200,0.00002971,-
 0.00001622,-0.00000074,-0.00001237,-0.00000385,-0.00001647,-0.00002943
 ,0.00000096,0.00000579,0.00002249,-0.00006838,-0.00000127,0.00003511,-
 0.00006563,-0.00004516,0.00004153,0.00022323,0.00003931,-0.00000627,-0
 .00004063,-0.00010142,-0.00005650,0.00023513,0.00071511,0.00021669,0.0
 0021928,0.00405725,-0.00181746,-0.00168492,-0.00125451,-0.00067031,-0.
 00026730,0.00006873,0.00017638,0.00008532,0.00033511,0.00007091,0.0000
 5436,-0.00229016,0.00070469,0.00093106,-0.01458152,-0.01708276,-0.0067
 9563,-0.11369526,-0.24437510,-0.06651946,0.00247412,0.00393931,-0.0002
 0724,0.00077635,0.00209086,-0.00207901,-0.00000354,-0.00000013,-0.0000
 0047,-0.00000232,-0.00000174,-0.00000371,0.00000324,0.00000164,-0.0000
 0067,-0.00000172,0.00000394,0.00000026,-0.00000715,0.00000097,0.000007
 65,-0.00002176,-0.00001618,-0.00000852,-0.00001497,0.00000231,-0.00003
 560,0.00002616,0.00001980,-0.00000383,0.00022372,-0.00030919,-0.000112
 76,0.00006180,0.00003595,0.00000096,0.00003439,-0.00001521,-0.00003936
 ,0.00121224,0.00033686,0.00008679,0.12229138,0.25618092,-0.00000355,0.
 00000364,-0.00000880,0.00000044,0.,0.00000009,-0.00000484,0.00001367,-
 0.00003947,0.00001263,0.00000213,-0.00002136,-0.00000639,-0.00001631,0
 .00007629,0.00000034,-0.00000413,-0.00000117,-0.00000361,0.00000339,-0
 .00003308,-0.00000582,-0.00007032,0.00022405,-0.00000326,-0.00010421,0
 .00021672,-0.00000615,0.00022593,-0.00062059,0.00000561,-0.00003898,0.
 00011782,-0.00000264,0.00023807,-0.00075862,0.00021995,0.00021203,-0.0
 0036255,0.00109089,-0.00173306,0.00353308,-0.00037441,-0.00021579,0.00
 001167,0.00002971,0.00008731,-0.00006780,0.00010811,0.00003472,-0.0000
 6256,-0.00060674,0.00103595,-0.00223232,-0.00430670,-0.00603051,0.0017
 8192,-0.03732431,-0.06650853,-0.05928002,0.00029941,-0.00102958,0.0045
 2818,-0.00013941,-0.00203993,0.00830360,-0.00000133,-0.00000039,0.0000
 0091,-0.00000127,-0.00000376,0.00000894,0.00000112,-0.00000077,0.00000
 391,-0.00000078,0.00000052,0.00000306,-0.00000232,0.00000805,-0.000022
 17,-0.00000631,-0.00000735,0.00000722,-0.00000786,-0.00003568,0.000105
 80,0.00000655,-0.00000594,0.00003298,0.00006323,-0.00011362,0.00004507
 ,0.00001749,-0.00000152,0.00003838,0.00000815,-0.00004115,0.00010369,0
 .00036198,0.00004294,0.00018575,0.04048234,0.07417533,0.04935340,-0.00
 000444,0.00002664,0.00000833,0.00003404,0.00002246,0.00000783,0.000019
 28,-0.00004378,-0.00001260,0.00005475,0.00010986,0.00003301,0.00001703
 ,-0.00002332,-0.00000742,-0.00002428,0.00003944,0.00001015,-0.00008558
 ,0.00012358,0.00004253,-0.00380488,-0.00177567,-0.00065165,-0.00010592
 ,0.00130967,0.00046180,0.00009165,0.00000325,0.00000432,0.00005355,-0.
 00001505,0.00000190,0.00070170,-0.00055017,-0.00015519,-0.00188293,-0.
 00251640,-0.00093513,-0.00044631,-0.00039011,-0.00012190,0.00024991,-0
 .00002695,0.00001923,-0.00012945,-0.00016531,-0.00005765,-0.00046014,0
 .00006886,0.00002819,0.00014593,0.00125851,0.00038670,-0.00509459,-0.0
 0175764,-0.00093675,-0.01224428,0.02914590,0.00845757,-0.11901313,0.11
 271604,0.03238230,0.01223030,-0.01263324,-0.00363475,0.00000971,0.0000
 0376,0.00000167,0.00000661,0.00000565,0.00000180,-0.00000050,0.0000146
 8,0.00000438,-0.00000132,-0.00000268,-0.00000099,0.00002307,0.00002109
 ,0.00000684,-0.00445373,-0.00015952,-0.00020842,-0.00001540,0.00002546
 ,0.00000625,-0.00012470,-0.00021934,-0.00007067,-0.00001515,0.00004486
 ,0.00001244,-0.00000032,0.00001542,0.00000243,-0.00007413,0.00012023,0
 .00003539,-0.00002349,-0.00005789,-0.00002427,0.00113445,-0.00029264,0
 .00009973,0.13323266,-0.00001922,0.00000681,0.00000468,0.00003288,0.00
 004050,0.00001338,-0.00003017,-0.00003091,-0.00000691,0.00012435,0.000
 05135,-0.00000557,0.00018141,-0.00005629,-0.00002042,0.00000310,0.0000
 9909,0.00001615,-0.00004363,0.00090018,0.00035272,0.00129270,-0.000780
 40,-0.00022695,0.00176861,-0.00051036,0.00059243,-0.00014508,-0.000082
 11,-0.00002017,-0.00002528,0.00005299,0.00007190,0.00109029,-0.0006439
 6,-0.00023024,-0.00397149,-0.00166448,-0.00185976,-0.00063877,0.000282
 51,0.00018209,0.00009003,-0.00005525,0.00021595,-0.00004581,-0.0000000
 3,-0.00003871,0.00007286,0.00003241,0.00023200,0.00001302,-0.00007804,
 -0.00006392,-0.00042238,0.00221984,-0.00220372,-0.00172091,0.00287686,
 -0.00086406,0.11326982,-0.26034969,-0.06501638,0.01349363,-0.01641018,
 -0.00570632,0.00000816,0.00000937,0.00000586,-0.00000176,0.00000304,-0
 .00000041,0.00001388,0.00003208,0.00000901,-0.00001466,-0.00000062,-0.
 00000202,-0.00002177,-0.00001618,-0.00000853,0.00032218,0.00209495,0.0
 0023785,-0.00003914,0.00001437,-0.00000939,-0.00021284,-0.00030105,-0.
 00009735,-0.00002133,0.00001466,-0.00000624,0.00001872,-0.00000218,-0.
 00002585,-0.00000075,-0.00000448,0.00000440,0.00001312,0.00002524,-0.0
 0005726,0.00001189,0.00048361,0.00191783,-0.12444567,0.27174634,-0.000
 00574,0.00000594,-0.00000849,0.00001103,0.00001309,0.00000417,-0.00000
 843,-0.00000728,-0.00001357,0.00003746,-0.00000597,0.00007982,0.000055
 42,-0.00002604,0.00002000,-0.00000100,0.00001715,0.00005200,-0.0000088
 0,0.00035732,-0.00014343,0.00029018,-0.00031127,-0.00001284,0.00060267
 ,0.00057982,-0.00208756,-0.00004121,-0.00001610,-0.00003544,-0.0000012
 5,0.00007219,-0.00016141,0.00034834,-0.00027532,0.00012883,-0.00138176
 ,-0.00181978,0.00344234,-0.00019822,0.00018893,-0.00031538,0.00005513,
 0.00021273,-0.00068391,-0.00002097,-0.00004199,0.00010851,0.00002942,0
 .00023189,-0.00064491,0.00000440,-0.00002969,0.00012236,-0.00052690,-0
 .00224041,0.00865937,-0.00101687,-0.00001585,0.00550500,0.03255228,-0.
 06503159,-0.05745875,0.00438479,-0.00642427,0.00153707,0.00000302,0.00
 000574,-0.00000714,-0.00000048,-0.00000021,0.00000415,0.00000414,0.000
 00904,0.00000684,-0.00000466,-0.00000169,0.00000401,-0.00000631,-0.000
 00735,0.00000722,-0.00006056,0.00022461,0.00141619,-0.00001358,-0.0000
 0761,0.00003874,-0.00006868,-0.00009753,-0.00003477,-0.00000787,-0.000
 00442,0.00003151,0.00000344,-0.00002594,0.00007584,-0.00000175,0.00000
 773,-0.00001658,-0.00000247,-0.00005921,0.00019473,0.00019320,0.001909
 46,-0.00517203,-0.03519742,0.07261392,0.04535751\\-0.00000531,-0.00001
 729,-0.00000545,-0.00002112,-0.00000418,-0.00000186,-0.00000363,-0.000
 00975,-0.00000309,0.00000322,0.00000285,0.00000096,-0.00000686,0.00000
 680,0.00000190,0.00001836,0.00000817,0.00000301,-0.00000324,0.00000224
 ,0.00000060,-0.00001297,0.00001615,0.00000460,0.00001630,-0.00000868,-
 0.00000222,-0.00000024,0.00000442,0.00000135,0.00001033,-0.00002480,-0
 .00000733,-0.00001063,-0.00002452,-0.00000782,0.00000029,0.00000441,0.
 00000136,-0.00000319,0.00000293,0.00000081,0.00000352,-0.00000985,-0.0
 0000293,0.00002107,-0.00000474,-0.00000088,0.00000511,-0.00001742,-0.0
 0000521,-0.00001826,0.00000865,0.00000215,0.00000695,0.00000661,0.0000
 0222,0.00000327,0.00000215,0.00000075,0.00001316,0.00001580,0.00000521
 ,-0.00001641,-0.00000825,-0.00000298,0.00000462,0.00000242,0.00000087,
 0.00000025,0.00000888,0.00000273,-0.00001122,0.00000790,0.00000212,-0.
 00000414,0.00000093,0.00000017,-0.00000334,-0.00000386,-0.00000128,-0.
 00000001,-0.00000232,-0.00000071,0.00001378,0.00001021,0.00000351,-0.0
 0001366,0.00001058,0.00000287,0.00001132,0.00000760,0.00000265,-0.0000
 0014,0.00000889,0.00000272,-0.00000459,0.00000254,0.00000065,0.0000041
 5,0.00000082,0.00000037,0.00000329,-0.00000395,-0.00000112,-0.00000002
 ,-0.00000232,-0.00000071\\\@
 The archive entry for this job was punched.


 WE DON'T KNOW ONE MILLIONTH OF ONE PERCENT ABOUT
 ANYTHING.
                                     T. A. EDISON.
 Job cpu time:       0 days  0 hours 37 minutes  0.1 seconds.
 Elapsed time:       0 days  0 hours  4 minutes 37.5 seconds.
 File lengths (MBytes):  RWF=    308 Int=      0 D2E=      0 Chk=     11 Scr=      1
 Normal termination of Gaussian 16 at Tue Oct  8 21:28:54 2024.
