 Entering Gaussian System, Link 0=g16
 Initial command:
 /opt/g16/l1.exe "/tmp/Gau-1162099.inp" -scrdir="/tmp/"
 Entering Link 1 = /opt/g16/l1.exe PID=   1162101.
  
 Copyright (c) 1988-2019, Gaussian, Inc.  All Rights Reserved.
  
 This is part of the Gaussian(R) 16 program.  It is based on
 the Gaussian(R) 09 system (copyright 2009, Gaussian, Inc.),
 the Gaussian(R) 03 system (copyright 2003, Gaussian, Inc.),
 the Gaussian(R) 98 system (copyright 1998, Gaussian, Inc.),
 the Gaussian(R) 94 system (copyright 1995, Gaussian, Inc.),
 the Gaussian 92(TM) system (copyright 1992, Gaussian, Inc.),
 the Gaussian 90(TM) system (copyright 1990, Gaussian, Inc.),
 the Gaussian 88(TM) system (copyright 1988, Gaussian, Inc.),
 the Gaussian 86(TM) system (copyright 1986, Carnegie Mellon
 University), and the Gaussian 82(TM) system (copyright 1983,
 Carnegie Mellon University). Gaussian is a federally registered
 trademark of Gaussian, Inc.
  
 This software contains proprietary and confidential information,
 including trade secrets, belonging to Gaussian, Inc.
  
 This software is provided under written license and may be
 used, copied, transmitted, or stored only in accord with that
 written license.
  
 The following legend is applicable only to US Government
 contracts under FAR:
  
                    RESTRICTED RIGHTS LEGEND
  
 Use, reproduction and disclosure by the US Government is
 subject to restrictions as set forth in subparagraphs (a)
 and (c) of the Commercial Computer Software - Restricted
 Rights clause in FAR 52.227-19.
  
 Gaussian, Inc.
 340 Quinnipiac St., Bldg. 40, Wallingford CT 06492
  
  
 ---------------------------------------------------------------
 Warning -- This program may not be used in any manner that
 competes with the business of Gaussian, Inc. or will provide
 assistance to any competitor of Gaussian, Inc.  The licensee
 of this program is prohibited from giving any competitor of
 Gaussian, Inc. access to this program.  By using this program,
 the user acknowledges that Gaussian, Inc. is engaged in the
 business of creating and licensing software in the field of
 computational chemistry and represents and warrants to the
 licensee that it is not a competitor of Gaussian, Inc. and that
 it will not use this program in any manner prohibited above.
 ---------------------------------------------------------------
  

 Cite this work as:
 Gaussian 16, Revision C.01,
 M. J. Frisch, G. W. Trucks, H. B. Schlegel, G. E. Scuseria, 
 M. A. Robb, J. R. Cheeseman, G. Scalmani, V. Barone, 
 G. A. Petersson, H. Nakatsuji, X. Li, M. Caricato, A. V. Marenich, 
 J. Bloino, B. G. Janesko, R. Gomperts, B. Mennucci, H. P. Hratchian, 
 J. V. Ortiz, A. F. Izmaylov, J. L. Sonnenberg, D. Williams-Young, 
 F. Ding, F. Lipparini, F. Egidi, J. Goings, B. Peng, A. Petrone, 
 T. Henderson, D. Ranasinghe, V. G. Zakrzewski, J. Gao, N. Rega, 
 G. Zheng, W. Liang, M. Hada, M. Ehara, K. Toyota, R. Fukuda, 
 J. Hasegawa, M. Ishida, T. Nakajima, Y. Honda, O. Kitao, H. Nakai, 
 T. Vreven, K. Throssell, J. A. Montgomery, Jr., J. E. Peralta, 
 F. Ogliaro, M. J. Bearpark, J. J. Heyd, E. N. Brothers, K. N. Kudin, 
 V. N. Staroverov, T. A. Keith, R. Kobayashi, J. Normand, 
 K. Raghavachari, A. P. Rendell, J. C. Burant, S. S. Iyengar, 
 J. Tomasi, M. Cossi, J. M. Millam, M. Klene, C. Adamo, R. Cammi, 
 J. W. Ochterski, R. L. Martin, K. Morokuma, O. Farkas, 
 J. B. Foresman, and D. J. Fox, Gaussian, Inc., Wallingford CT, 2019.
 
 ******************************************
 Gaussian 16:  ES64L-G16RevC.01  3-Jul-2019
                 8-Oct-2024 
 ******************************************
 %nprocshared=8
 Will use up to    8 processors via shared memory.
 %mem=10400MB
 ----------------------------------------------------------------------
 #N opt freq B3LYP/def2SVPP symm=veryloose em=gd3bj scale=0.961 press=0
 .987
 ----------------------------------------------------------------------
 1/18=20,19=15,26=3,38=1,113=-987000,114=961000/1,3;
 2/9=110,12=2,17=2,18=2,40=1/2;
 3/5=43,7=202,11=2,25=1,30=1,71=1,74=-5,124=41/1,2,3;
 4//1;
 5/5=2,38=5/2;
 6/7=2,8=2,9=2,10=2,28=1/1;
 7//1,2,3,16;
 1/18=20,19=15,26=3/3(2);
 2/9=110/2;
 99//99;
 2/9=110/2;
 3/5=43,7=202,11=2,25=1,30=1,71=1,74=-5,124=41/1,2,3;
 4/5=5,16=3,69=1/1;
 5/5=2,38=5/2;
 7//1,2,3,16;
 1/18=20,19=15,26=3/3(-5);
 2/9=110/2;
 6/7=2,8=2,9=2,10=2,19=2,28=1/1;
 99/9=1/99;
 ------------------------------------------
 c1ccc2c(c1)c1ccccc1c1c3ccccc3c3ccccc3c21_2
 ------------------------------------------
 Symbolic Z-matrix:
 Charge =  0 Multiplicity = 1
 C                    -3.9374    2.5236    0.6011 
 C                    -2.8705    3.2961    0.2107 
 C                    -1.6347    2.6839    0.0014 
 C                    -1.3807    1.2957    0.2048 
 C                    -2.5288    0.494     0.4094 
 C                    -3.7709    1.144     0.6746 
 C                    -2.4288   -0.912     0.2322 
 C                    -3.5635   -1.7737    0.3067 
 C                    -3.5376   -3.1018   -0.108 
 C                    -2.3804   -3.5977   -0.6583 
 C                    -1.2458   -2.7869   -0.6882 
 C                    -1.184    -1.4704   -0.1438 
 C                     0.05     -0.7037   -0.028 
 C                     1.3807   -1.2957   -0.0835 
 C                     1.6348   -2.6839    0.12 
 C                     2.8706   -3.2961   -0.0894 
 C                     3.9375   -2.5235   -0.4799 
 C                     3.7709   -1.1439   -0.5533 
 C                     2.5288   -0.4939   -0.2881 
 C                     2.4288    0.912    -0.1108 
 C                     3.5635    1.7738   -0.1853 
 C                     3.5375    3.1018    0.2295 
 C                     2.3804    3.5977    0.7798 
 C                     1.2458    2.7868    0.8097 
 C                     1.184     1.4704    0.2653 
 C                    -0.05      0.7037    0.1494 
 H                    -4.9091    2.9716    0.7865 
 H                    -2.9846    4.3659    0.0618 
 H                    -0.8491    3.332    -0.3819 
 H                    -4.6667    0.5759    0.9057 
 H                    -4.5256   -1.4107    0.6551 
 H                    -4.434    -3.7125   -0.0562 
 H                    -2.3471   -4.6027   -1.0686 
 H                    -0.3844   -3.2043   -1.2057 
 H                     0.8492   -3.332     0.5033 
 H                     2.9847   -4.3659    0.0594 
 H                     4.9091   -2.9715   -0.6653 
 H                     4.6667   -0.5758   -0.7845 
 H                     4.5255    1.4108   -0.5338 
 H                     4.4339    3.7126    0.1776 
 H                     2.3471    4.6027    1.1902 
 H                     0.3844    3.2042    1.3273 
 

 GradGradGradGradGradGradGradGradGradGradGradGradGradGradGradGradGradGrad
 Berny optimization.
 Initialization pass.
                           ----------------------------
                           !    Initial Parameters    !
                           ! (Angstroms and Degrees)  !
 --------------------------                            --------------------------
 ! Name  Definition              Value          Derivative Info.                !
 --------------------------------------------------------------------------------
 ! R1    R(1,2)                  1.3738         estimate D2E/DX2                !
 ! R2    R(1,6)                  1.3916         estimate D2E/DX2                !
 ! R3    R(1,27)                 1.0859         estimate D2E/DX2                !
 ! R4    R(2,3)                  1.3949         estimate D2E/DX2                !
 ! R5    R(2,28)                 1.0861         estimate D2E/DX2                !
 ! R6    R(3,4)                  1.4258         estimate D2E/DX2                !
 ! R7    R(3,29)                 1.0882         estimate D2E/DX2                !
 ! R8    R(4,5)                  1.4152         estimate D2E/DX2                !
 ! R9    R(4,26)                 1.4575         estimate D2E/DX2                !
 ! R10   R(5,6)                  1.4268         estimate D2E/DX2                !
 ! R11   R(5,7)                  1.4206         estimate D2E/DX2                !
 ! R12   R(6,30)                 1.0856         estimate D2E/DX2                !
 ! R13   R(7,8)                  1.4268         estimate D2E/DX2                !
 ! R14   R(7,12)                 1.4152         estimate D2E/DX2                !
 ! R15   R(8,9)                  1.3916         estimate D2E/DX2                !
 ! R16   R(8,31)                 1.0857         estimate D2E/DX2                !
 ! R17   R(9,10)                 1.374          estimate D2E/DX2                !
 ! R18   R(9,32)                 1.0859         estimate D2E/DX2                !
 ! R19   R(10,11)                1.3949         estimate D2E/DX2                !
 ! R20   R(10,33)                1.086          estimate D2E/DX2                !
 ! R21   R(11,12)                1.426          estimate D2E/DX2                !
 ! R22   R(11,34)                1.0881         estimate D2E/DX2                !
 ! R23   R(12,13)                1.4574         estimate D2E/DX2                !
 ! R24   R(13,14)                1.4575         estimate D2E/DX2                !
 ! R25   R(13,26)                1.4221         estimate D2E/DX2                !
 ! R26   R(14,15)                1.4259         estimate D2E/DX2                !
 ! R27   R(14,19)                1.4152         estimate D2E/DX2                !
 ! R28   R(15,16)                1.3949         estimate D2E/DX2                !
 ! R29   R(15,35)                1.0882         estimate D2E/DX2                !
 ! R30   R(16,17)                1.3739         estimate D2E/DX2                !
 ! R31   R(16,36)                1.0861         estimate D2E/DX2                !
 ! R32   R(17,18)                1.3916         estimate D2E/DX2                !
 ! R33   R(17,37)                1.0859         estimate D2E/DX2                !
 ! R34   R(18,19)                1.4268         estimate D2E/DX2                !
 ! R35   R(18,38)                1.0857         estimate D2E/DX2                !
 ! R36   R(19,20)                1.4206         estimate D2E/DX2                !
 ! R37   R(20,21)                1.4268         estimate D2E/DX2                !
 ! R38   R(20,25)                1.4152         estimate D2E/DX2                !
 ! R39   R(21,22)                1.3915         estimate D2E/DX2                !
 ! R40   R(21,39)                1.0857         estimate D2E/DX2                !
 ! R41   R(22,23)                1.3739         estimate D2E/DX2                !
 ! R42   R(22,40)                1.086          estimate D2E/DX2                !
 ! R43   R(23,24)                1.3949         estimate D2E/DX2                !
 ! R44   R(23,41)                1.0861         estimate D2E/DX2                !
 ! R45   R(24,25)                1.4259         estimate D2E/DX2                !
 ! R46   R(24,42)                1.0882         estimate D2E/DX2                !
 ! R47   R(25,26)                1.4574         estimate D2E/DX2                !
 ! A1    A(2,1,6)              118.6562         estimate D2E/DX2                !
 ! A2    A(2,1,27)             120.7589         estimate D2E/DX2                !
 ! A3    A(6,1,27)             120.4672         estimate D2E/DX2                !
 ! A4    A(1,2,3)              118.9376         estimate D2E/DX2                !
 ! A5    A(1,2,28)             120.7449         estimate D2E/DX2                !
 ! A6    A(3,2,28)             120.3169         estimate D2E/DX2                !
 ! A7    A(2,3,4)              124.313          estimate D2E/DX2                !
 ! A8    A(2,3,29)             115.5345         estimate D2E/DX2                !
 ! A9    A(4,3,29)             120.0998         estimate D2E/DX2                !
 ! A10   A(3,4,5)              115.3188         estimate D2E/DX2                !
 ! A11   A(3,4,26)             123.551          estimate D2E/DX2                !
 ! A12   A(5,4,26)             121.0707         estimate D2E/DX2                !
 ! A13   A(4,5,6)              118.3636         estimate D2E/DX2                !
 ! A14   A(4,5,7)              119.0467         estimate D2E/DX2                !
 ! A15   A(6,5,7)              122.3674         estimate D2E/DX2                !
 ! A16   A(1,6,5)              123.0938         estimate D2E/DX2                !
 ! A17   A(1,6,30)             115.5506         estimate D2E/DX2                !
 ! A18   A(5,6,30)             121.2997         estimate D2E/DX2                !
 ! A19   A(5,7,8)              122.36           estimate D2E/DX2                !
 ! A20   A(5,7,12)             119.0498         estimate D2E/DX2                !
 ! A21   A(8,7,12)             118.3671         estimate D2E/DX2                !
 ! A22   A(7,8,9)              123.0961         estimate D2E/DX2                !
 ! A23   A(7,8,31)             121.3039         estimate D2E/DX2                !
 ! A24   A(9,8,31)             115.5443         estimate D2E/DX2                !
 ! A25   A(8,9,10)             118.6517         estimate D2E/DX2                !
 ! A26   A(8,9,32)             120.4747         estimate D2E/DX2                !
 ! A27   A(10,9,32)            120.7552         estimate D2E/DX2                !
 ! A28   A(9,10,11)            118.9382         estimate D2E/DX2                !
 ! A29   A(9,10,33)            120.7386         estimate D2E/DX2                !
 ! A30   A(11,10,33)           120.3225         estimate D2E/DX2                !
 ! A31   A(10,11,12)           124.3141         estimate D2E/DX2                !
 ! A32   A(10,11,34)           115.5404         estimate D2E/DX2                !
 ! A33   A(12,11,34)           120.093          estimate D2E/DX2                !
 ! A34   A(7,12,11)            115.3157         estimate D2E/DX2                !
 ! A35   A(7,12,13)            121.0704         estimate D2E/DX2                !
 ! A36   A(11,12,13)           123.5541         estimate D2E/DX2                !
 ! A37   A(12,13,14)           123.8037         estimate D2E/DX2                !
 ! A38   A(12,13,26)           118.1008         estimate D2E/DX2                !
 ! A39   A(14,13,26)           118.0954         estimate D2E/DX2                !
 ! A40   A(13,14,15)           123.5536         estimate D2E/DX2                !
 ! A41   A(13,14,19)           121.068          estimate D2E/DX2                !
 ! A42   A(15,14,19)           115.3185         estimate D2E/DX2                !
 ! A43   A(14,15,16)           124.3146         estimate D2E/DX2                !
 ! A44   A(14,15,35)           120.0973         estimate D2E/DX2                !
 ! A45   A(16,15,35)           115.5358         estimate D2E/DX2                !
 ! A46   A(15,16,17)           118.9352         estimate D2E/DX2                !
 ! A47   A(15,16,36)           120.3172         estimate D2E/DX2                !
 ! A48   A(17,16,36)           120.7469         estimate D2E/DX2                !
 ! A49   A(16,17,18)           118.6541         estimate D2E/DX2                !
 ! A50   A(16,17,37)           120.7537         estimate D2E/DX2                !
 ! A51   A(18,17,37)           120.4742         estimate D2E/DX2                !
 ! A52   A(17,18,19)           123.0988         estimate D2E/DX2                !
 ! A53   A(17,18,38)           115.5455         estimate D2E/DX2                !
 ! A54   A(19,18,38)           121.3001         estimate D2E/DX2                !
 ! A55   A(14,19,18)           118.3602         estimate D2E/DX2                !
 ! A56   A(14,19,20)           119.0487         estimate D2E/DX2                !
 ! A57   A(18,19,20)           122.3683         estimate D2E/DX2                !
 ! A58   A(19,20,21)           122.3623         estimate D2E/DX2                !
 ! A59   A(19,20,25)           119.0511         estimate D2E/DX2                !
 ! A60   A(21,20,25)           118.3637         estimate D2E/DX2                !
 ! A61   A(20,21,22)           123.0937         estimate D2E/DX2                !
 ! A62   A(20,21,39)           121.2981         estimate D2E/DX2                !
 ! A63   A(22,21,39)           115.5526         estimate D2E/DX2                !
 ! A64   A(21,22,23)           118.6592         estimate D2E/DX2                !
 ! A65   A(21,22,40)           120.4715         estimate D2E/DX2                !
 ! A66   A(23,22,40)           120.7516         estimate D2E/DX2                !
 ! A67   A(22,23,24)           118.9333         estimate D2E/DX2                !
 ! A68   A(22,23,41)           120.7418         estimate D2E/DX2                !
 ! A69   A(24,23,41)           120.3242         estimate D2E/DX2                !
 ! A70   A(23,24,25)           124.3168         estimate D2E/DX2                !
 ! A71   A(23,24,42)           115.5364         estimate D2E/DX2                !
 ! A72   A(25,24,42)           120.0943         estimate D2E/DX2                !
 ! A73   A(20,25,24)           115.3169         estimate D2E/DX2                !
 ! A74   A(20,25,26)           121.0679         estimate D2E/DX2                !
 ! A75   A(24,25,26)           123.5556         estimate D2E/DX2                !
 ! A76   A(4,26,13)            118.095          estimate D2E/DX2                !
 ! A77   A(4,26,25)            123.8038         estimate D2E/DX2                !
 ! A78   A(13,26,25)           118.1012         estimate D2E/DX2                !
 ! D1    D(6,1,2,3)             -4.8357         estimate D2E/DX2                !
 ! D2    D(6,1,2,28)           174.876          estimate D2E/DX2                !
 ! D3    D(27,1,2,3)           179.0905         estimate D2E/DX2                !
 ! D4    D(27,1,2,28)           -1.1978         estimate D2E/DX2                !
 ! D5    D(2,1,6,5)              2.3089         estimate D2E/DX2                !
 ! D6    D(2,1,6,30)          -175.0001         estimate D2E/DX2                !
 ! D7    D(27,1,6,5)           178.3945         estimate D2E/DX2                !
 ! D8    D(27,1,6,30)            1.0855         estimate D2E/DX2                !
 ! D9    D(1,2,3,4)             -2.0033         estimate D2E/DX2                !
 ! D10   D(1,2,3,29)           175.3487         estimate D2E/DX2                !
 ! D11   D(28,2,3,4)           178.2838         estimate D2E/DX2                !
 ! D12   D(28,2,3,29)           -4.3642         estimate D2E/DX2                !
 ! D13   D(2,3,4,5)             11.0142         estimate D2E/DX2                !
 ! D14   D(2,3,4,26)          -171.7703         estimate D2E/DX2                !
 ! D15   D(29,3,4,5)          -166.224          estimate D2E/DX2                !
 ! D16   D(29,3,4,26)           10.9915         estimate D2E/DX2                !
 ! D17   D(3,4,5,6)            -12.9197         estimate D2E/DX2                !
 ! D18   D(3,4,5,7)            161.7927         estimate D2E/DX2                !
 ! D19   D(26,4,5,6)           169.7894         estimate D2E/DX2                !
 ! D20   D(26,4,5,7)           -15.4982         estimate D2E/DX2                !
 ! D21   D(3,4,26,13)         -161.7046         estimate D2E/DX2                !
 ! D22   D(3,4,26,25)           18.2974         estimate D2E/DX2                !
 ! D23   D(5,4,26,13)           15.3567         estimate D2E/DX2                !
 ! D24   D(5,4,26,25)         -164.6414         estimate D2E/DX2                !
 ! D25   D(4,5,6,1)              7.0726         estimate D2E/DX2                !
 ! D26   D(4,5,6,30)          -175.7689         estimate D2E/DX2                !
 ! D27   D(7,5,6,1)           -167.454          estimate D2E/DX2                !
 ! D28   D(7,5,6,30)             9.7045         estimate D2E/DX2                !
 ! D29   D(4,5,7,8)           -174.4815         estimate D2E/DX2                !
 ! D30   D(4,5,7,12)             0.0003         estimate D2E/DX2                !
 ! D31   D(6,5,7,8)              0.0092         estimate D2E/DX2                !
 ! D32   D(6,5,7,12)           174.4909         estimate D2E/DX2                !
 ! D33   D(5,7,8,9)            167.4555         estimate D2E/DX2                !
 ! D34   D(5,7,8,31)            -9.7102         estimate D2E/DX2                !
 ! D35   D(12,7,8,9)            -7.0622         estimate D2E/DX2                !
 ! D36   D(12,7,8,31)          175.772          estimate D2E/DX2                !
 ! D37   D(5,7,12,11)         -161.7874         estimate D2E/DX2                !
 ! D38   D(5,7,12,13)           15.4964         estimate D2E/DX2                !
 ! D39   D(8,7,12,11)           12.9158         estimate D2E/DX2                !
 ! D40   D(8,7,12,13)         -169.8003         estimate D2E/DX2                !
 ! D41   D(7,8,9,10)            -2.3195         estimate D2E/DX2                !
 ! D42   D(7,8,9,32)          -178.3947         estimate D2E/DX2                !
 ! D43   D(31,8,9,10)          174.9966         estimate D2E/DX2                !
 ! D44   D(31,8,9,32)           -1.0787         estimate D2E/DX2                !
 ! D45   D(8,9,10,11)            4.8393         estimate D2E/DX2                !
 ! D46   D(8,9,10,33)         -174.877          estimate D2E/DX2                !
 ! D47   D(32,9,10,11)        -179.0969         estimate D2E/DX2                !
 ! D48   D(32,9,10,33)           1.1868         estimate D2E/DX2                !
 ! D49   D(9,10,11,12)           2.0061         estimate D2E/DX2                !
 ! D50   D(9,10,11,34)        -175.3522         estimate D2E/DX2                !
 ! D51   D(33,10,11,12)       -178.2763         estimate D2E/DX2                !
 ! D52   D(33,10,11,34)          4.3654         estimate D2E/DX2                !
 ! D53   D(10,11,12,7)         -11.0166         estimate D2E/DX2                !
 ! D54   D(10,11,12,13)        171.7752         estimate D2E/DX2                !
 ! D55   D(34,11,12,7)         166.2285         estimate D2E/DX2                !
 ! D56   D(34,11,12,13)        -10.9798         estimate D2E/DX2                !
 ! D57   D(7,12,13,14)         164.6497         estimate D2E/DX2                !
 ! D58   D(7,12,13,26)         -15.3522         estimate D2E/DX2                !
 ! D59   D(11,12,13,14)        -18.2968         estimate D2E/DX2                !
 ! D60   D(11,12,13,26)        161.7013         estimate D2E/DX2                !
 ! D61   D(12,13,14,15)        -18.3031         estimate D2E/DX2                !
 ! D62   D(12,13,14,19)        164.6463         estimate D2E/DX2                !
 ! D63   D(26,13,14,15)        161.6988         estimate D2E/DX2                !
 ! D64   D(26,13,14,19)        -15.3517         estimate D2E/DX2                !
 ! D65   D(12,13,26,4)          -0.0026         estimate D2E/DX2                !
 ! D66   D(12,13,26,25)        179.9956         estimate D2E/DX2                !
 ! D67   D(14,13,26,4)         179.9956         estimate D2E/DX2                !
 ! D68   D(14,13,26,25)         -0.0062         estimate D2E/DX2                !
 ! D69   D(13,14,15,16)        171.7698         estimate D2E/DX2                !
 ! D70   D(13,14,15,35)        -10.9811         estimate D2E/DX2                !
 ! D71   D(19,14,15,16)        -11.0249         estimate D2E/DX2                !
 ! D72   D(19,14,15,35)        166.2242         estimate D2E/DX2                !
 ! D73   D(13,14,19,18)       -169.7943         estimate D2E/DX2                !
 ! D74   D(13,14,19,20)         15.4985         estimate D2E/DX2                !
 ! D75   D(15,14,19,18)         12.9247         estimate D2E/DX2                !
 ! D76   D(15,14,19,20)       -161.7825         estimate D2E/DX2                !
 ! D77   D(14,15,16,17)          2.0102         estimate D2E/DX2                !
 ! D78   D(14,15,16,36)       -178.2717         estimate D2E/DX2                !
 ! D79   D(35,15,16,17)       -175.3522         estimate D2E/DX2                !
 ! D80   D(35,15,16,36)          4.3659         estimate D2E/DX2                !
 ! D81   D(15,16,17,18)          4.8382         estimate D2E/DX2                !
 ! D82   D(15,16,17,37)       -179.0937         estimate D2E/DX2                !
 ! D83   D(36,16,17,18)       -174.8787         estimate D2E/DX2                !
 ! D84   D(36,16,17,37)          1.1894         estimate D2E/DX2                !
 ! D85   D(16,17,18,19)         -2.3165         estimate D2E/DX2                !
 ! D86   D(16,17,18,38)        175.0017         estimate D2E/DX2                !
 ! D87   D(37,17,18,19)       -178.3959         estimate D2E/DX2                !
 ! D88   D(37,17,18,38)         -1.0778         estimate D2E/DX2                !
 ! D89   D(17,18,19,14)         -7.069          estimate D2E/DX2                !
 ! D90   D(17,18,19,20)        167.4523         estimate D2E/DX2                !
 ! D91   D(38,18,19,14)        175.763          estimate D2E/DX2                !
 ! D92   D(38,18,19,20)         -9.7157         estimate D2E/DX2                !
 ! D93   D(14,19,20,21)        174.4819         estimate D2E/DX2                !
 ! D94   D(14,19,20,25)         -0.0011         estimate D2E/DX2                !
 ! D95   D(18,19,20,21)         -0.003          estimate D2E/DX2                !
 ! D96   D(18,19,20,25)       -174.4861         estimate D2E/DX2                !
 ! D97   D(19,20,21,22)       -167.4557         estimate D2E/DX2                !
 ! D98   D(19,20,21,39)          9.7114         estimate D2E/DX2                !
 ! D99   D(25,20,21,22)          7.0635         estimate D2E/DX2                !
 ! D100  D(25,20,21,39)       -175.7693         estimate D2E/DX2                !
 ! D101  D(19,20,25,24)        161.7902         estimate D2E/DX2                !
 ! D102  D(19,20,25,26)        -15.5002         estimate D2E/DX2                !
 ! D103  D(21,20,25,24)        -12.9146         estimate D2E/DX2                !
 ! D104  D(21,20,25,26)        169.795          estimate D2E/DX2                !
 ! D105  D(20,21,22,23)          2.3152         estimate D2E/DX2                !
 ! D106  D(20,21,22,40)        178.4006         estimate D2E/DX2                !
 ! D107  D(39,21,22,23)       -175.0019         estimate D2E/DX2                !
 ! D108  D(39,21,22,40)          1.0836         estimate D2E/DX2                !
 ! D109  D(21,22,23,24)         -4.8349         estimate D2E/DX2                !
 ! D110  D(21,22,23,41)        174.8756         estimate D2E/DX2                !
 ! D111  D(40,22,23,24)        179.091          estimate D2E/DX2                !
 ! D112  D(40,22,23,41)         -1.1985         estimate D2E/DX2                !
 ! D113  D(22,23,24,25)         -2.0085         estimate D2E/DX2                !
 ! D114  D(22,23,24,42)        175.3485         estimate D2E/DX2                !
 ! D115  D(41,23,24,25)        178.2798         estimate D2E/DX2                !
 ! D116  D(41,23,24,42)         -4.3633         estimate D2E/DX2                !
 ! D117  D(23,24,25,20)         11.0161         estimate D2E/DX2                !
 ! D118  D(23,24,25,26)       -171.769          estimate D2E/DX2                !
 ! D119  D(42,24,25,20)       -166.2275         estimate D2E/DX2                !
 ! D120  D(42,24,25,26)         10.9874         estimate D2E/DX2                !
 ! D121  D(20,25,26,4)        -164.641          estimate D2E/DX2                !
 ! D122  D(20,25,26,13)         15.3609         estimate D2E/DX2                !
 ! D123  D(24,25,26,4)          18.2983         estimate D2E/DX2                !
 ! D124  D(24,25,26,13)       -161.6998         estimate D2E/DX2                !
 --------------------------------------------------------------------------------
 Trust Radius=3.00D-01 FncErr=1.00D-07 GrdErr=1.00D-06 EigMax=2.50D+02 EigMin=1.00D-04
 Number of steps in this run=    252 maximum allowed number of steps=    252.
 GradGradGradGradGradGradGradGradGradGradGradGradGradGradGradGradGradGrad

                          Input orientation:                          
 ---------------------------------------------------------------------
 Center     Atomic      Atomic             Coordinates (Angstroms)
 Number     Number       Type             X           Y           Z
 ---------------------------------------------------------------------
      1          6           0       -3.937400    2.523600    0.601100
      2          6           0       -2.870500    3.296100    0.210700
      3          6           0       -1.634700    2.683900    0.001400
      4          6           0       -1.380700    1.295700    0.204800
      5          6           0       -2.528800    0.494000    0.409400
      6          6           0       -3.770900    1.144000    0.674600
      7          6           0       -2.428800   -0.912000    0.232200
      8          6           0       -3.563500   -1.773700    0.306700
      9          6           0       -3.537600   -3.101800   -0.108000
     10          6           0       -2.380400   -3.597700   -0.658300
     11          6           0       -1.245800   -2.786900   -0.688200
     12          6           0       -1.184000   -1.470400   -0.143800
     13          6           0        0.050000   -0.703700   -0.028000
     14          6           0        1.380700   -1.295700   -0.083500
     15          6           0        1.634800   -2.683900    0.120000
     16          6           0        2.870600   -3.296100   -0.089400
     17          6           0        3.937500   -2.523500   -0.479900
     18          6           0        3.770900   -1.143900   -0.553300
     19          6           0        2.528800   -0.493900   -0.288100
     20          6           0        2.428800    0.912000   -0.110800
     21          6           0        3.563500    1.773800   -0.185300
     22          6           0        3.537500    3.101800    0.229500
     23          6           0        2.380400    3.597700    0.779800
     24          6           0        1.245800    2.786800    0.809700
     25          6           0        1.184000    1.470400    0.265300
     26          6           0       -0.050000    0.703700    0.149400
     27          1           0       -4.909100    2.971600    0.786500
     28          1           0       -2.984600    4.365900    0.061800
     29          1           0       -0.849100    3.332000   -0.381900
     30          1           0       -4.666700    0.575900    0.905700
     31          1           0       -4.525600   -1.410700    0.655100
     32          1           0       -4.434000   -3.712500   -0.056200
     33          1           0       -2.347100   -4.602700   -1.068600
     34          1           0       -0.384400   -3.204300   -1.205700
     35          1           0        0.849200   -3.332000    0.503300
     36          1           0        2.984700   -4.365900    0.059400
     37          1           0        4.909100   -2.971500   -0.665300
     38          1           0        4.666700   -0.575800   -0.784500
     39          1           0        4.525500    1.410800   -0.533800
     40          1           0        4.433900    3.712600    0.177600
     41          1           0        2.347100    4.602700    1.190200
     42          1           0        0.384400    3.204200    1.327300
 ---------------------------------------------------------------------
                    Distance matrix (angstroms):
                    1          2          3          4          5
     1  C    0.000000
     2  C    1.373843   0.000000
     3  C    2.384903   1.394918   0.000000
     4  C    2.863827   2.494221   1.425828   0.000000
     5  C    2.477938   2.829842   2.400321   1.415174   0.000000
     6  C    1.391553   2.378541   2.718058   2.440652   1.426760
     7  C    3.770319   4.231272   3.689764   2.444014   1.420646
     8  C    4.323570   5.117845   4.866588   3.767787   2.494717
     9  C    5.683994   6.440475   6.091578   4.907960   3.770299
    10  C    6.440547   6.965618   6.360013   5.068501   4.231314
    11  C    6.091668   6.360075   5.527788   4.181300   3.689867
    12  C    4.907965   5.068479   4.181199   2.794910   2.444051
    13  C    5.168229   4.958296   3.783505   2.469554   2.876806
    14  C    6.583154   6.264494   4.993702   3.797868   4.327836
    15  C    7.641919   7.487747   6.286253   4.993761   5.245795
    16  C    8.983015   8.746850   7.487748   6.264562   6.615677
    17  C    9.415722   8.982958   7.641863   6.583187   7.190911
    18  C    8.614005   8.025303   6.646823   5.750248   6.579949
    19  C    7.190808   6.615538   5.245661   4.327795   5.200170
    20  C    6.605495   5.819783   4.434439   3.841760   5.002312
    21  C    7.579190   6.623486   5.280570   4.982557   6.253613
    22  C    7.506433   6.410973   5.194066   5.239399   6.605527
    23  C    6.410945   5.290254   4.190700   4.446988   5.819828
    24  C    5.194069   4.190718   2.993529   3.080225   4.434499
    25  C    5.239344   4.446924   3.080145   2.571355   3.841745
    26  C    4.316011   3.831386   2.540545   1.457496   2.501204
    27  H    1.085946   2.143067   3.379475   3.949256   3.456376
    28  H    2.143068   1.086122   2.157545   3.466853   3.914101
    29  H    3.340269   2.106780   1.088173   2.184796   3.391429
    30  H    2.101950   3.332994   3.801900   3.436156   2.196278
    31  H    3.978393   5.009073   5.054738   4.173460   2.770462
    32  H    6.290278   7.185836   6.982359   5.871357   4.641251
    33  H    7.490067   8.018828   7.399118   6.111186   5.309788
    34  H    6.978336   7.102259   6.139319   4.819971   4.569948
    35  H    7.563673   7.606148   6.527842   5.145597   5.104701
    36  H    9.781315   9.644299   8.428636   7.150634   7.357976
    37  H   10.490970  10.028577   8.674639   7.650337   8.275689
    38  H    9.249687   8.531789   7.137992   6.407205   7.371912
    39  H    8.610865   7.668732   6.313104   5.953316   7.175883
    40  H    8.465916   7.316340   6.157692   6.296961   7.674132
    41  H    6.645648   5.467172   4.577092   5.079740   6.423820
    42  H    4.434923   3.442327   2.470929   2.831600   4.083437
                    6          7          8          9         10
     6  C    0.000000
     7  C    2.494812   0.000000
     8  C    2.948108   1.426752   0.000000
     9  C    4.323622   2.477983   1.391581   0.000000
    10  C    5.117991   2.829897   2.378640   1.373994   0.000000
    11  C    4.866758   2.400391   2.718112   2.384982   1.394850
    12  C    3.767880   1.415173   2.440689   2.863945   2.494291
    13  C    4.301967   2.501108   3.783425   4.316035   3.831365
    14  C    5.750290   3.841768   4.982555   5.239492   4.446962
    15  C    6.646954   4.434531   5.280686   5.194261   4.190777
    16  C    8.025441   5.819880   6.623612   6.411172   5.290332
    17  C    8.614108   6.605588   7.579310   7.506654   6.411052
    18  C    7.976276   6.253564   7.411455   7.579303   6.623492
    19  C    6.579949   5.002331   6.253622   6.605663   5.819868
    20  C    6.253556   5.200087   6.579890   7.190864   6.615554
    21  C    7.411444   6.579931   7.976274   8.614120   8.025378
    22  C    7.579169   7.190781   8.613981   9.415710   8.982930
    23  C    6.623458   6.615562   8.025317   8.982996   8.746835
    24  C    5.280561   5.245695   6.646844   7.641904   7.487736
    25  C    4.982479   4.327730   5.750187   6.583151   6.264473
    26  C    3.783490   2.876809   4.301969   5.168311   4.958345
    27  H    2.155955   4.641281   4.955675   6.290257   7.185922
    28  H    3.372600   5.309819   6.171693   7.490072   8.018886
    29  H    3.800059   4.569913   5.823256   6.978312   7.102254
    30  H    1.085635   2.770495   2.663920   3.978433   5.009212
    31  H    2.663915   2.196387   1.085720   2.101972   3.333147
    32  H    4.955740   3.456415   2.156018   1.085896   2.143123
    33  H    6.171751   3.914080   3.372584   2.143069   1.086039
    34  H    5.823369   3.391426   3.800085   3.340377   2.106757
    35  H    6.435001   4.083525   4.683895   4.435166   3.442416
    36  H    8.739313   6.423805   7.046955   6.645778   5.467131
    37  H    9.699230   7.674101   8.611879   8.466068   7.316351
    38  H    8.733830   7.175850   8.388198   8.610974   7.668730
    39  H    8.388186   7.371868   8.733808   9.249781   8.531824
    40  H    8.611821   8.275661   9.699204  10.491064  10.028654
    41  H    7.046870   7.357914   8.739236   9.781326   9.644313
    42  H    4.683691   5.104551   6.434829   7.563584   7.606088
                   11         12         13         14         15
    11  C    0.000000
    12  C    1.425960   0.000000
    13  C    2.540607   1.457393   0.000000
    14  C    3.080234   2.571350   1.457500   0.000000
    15  C    2.993602   3.080228   2.540608   1.425861   0.000000
    16  C    4.190775   4.447013   3.831461   2.494281   1.394933
    17  C    5.194167   5.239441   4.316079   2.863888   2.384960
    18  C    5.280618   4.982502   3.783492   2.440658   2.718061
    19  C    4.434584   3.841778   2.501223   1.415231   2.400392
    20  C    5.245754   4.327729   2.876809   2.444013   3.689743
    21  C    6.646974   5.750245   4.302026   3.767865   4.866640
    22  C    7.641919   6.583079   5.168249   4.907928   6.091517
    23  C    7.487821   6.264473   4.958361   5.068535   6.360012
    24  C    6.286327   4.993680   3.783552   4.181245   5.527709
    25  C    4.993765   3.797775   2.469553   2.794935   4.181213
    26  C    3.783623   2.469541   1.422057   2.469564   3.783550
    27  H    6.982466   5.871388   6.226067   7.650381   8.674764
    28  H    7.399221   6.111205   5.909121   7.150571   8.428637
    29  H    6.139391   4.819948   4.149759   5.145547   6.527842
    30  H    5.054849   4.173487   4.975583   6.407219   7.138104
    31  H    3.802035   3.436291   4.680020   5.953414   6.313311
    32  H    3.379464   3.949327   5.399993   6.297015   6.157873
    33  H    2.157474   3.466895   4.693734   5.079681   4.577127
    34  H    1.088136   2.184811   2.797978   2.831548   2.470924
    35  H    2.470998   2.831642   2.798028   2.184798   1.088173
    36  H    4.577038   5.079692   4.693806   3.466896   2.157551
    37  H    6.157710   6.296914   5.399993   3.949228   3.379416
    38  H    6.313152   5.953276   4.680018   3.436197   3.801924
    39  H    7.138097   6.407168   4.975645   4.173449   5.054718
    40  H    8.674797   7.650333   6.226119   5.871394   6.982370
    41  H    8.428731   7.150578   5.909193   6.111249   7.399138
    42  H    6.527869   5.145474   4.149740   4.819966   6.139283
                   16         17         18         19         20
    16  C    0.000000
    17  C    1.373927   0.000000
    18  C    2.378594   1.391560   0.000000
    19  C    2.829953   2.478003   1.426760   0.000000
    20  C    4.231282   3.770288   2.494747   1.420560   0.000000
    21  C    5.117929   4.323593   2.948120   2.494721   1.426812
    22  C    6.440464   5.683947   4.323566   3.770205   2.477952
    23  C    6.965650   6.440535   5.117950   4.231267   2.829929
    24  C    6.360034   6.091601   4.866652   3.689749   2.400351
    25  C    5.068526   4.907986   3.767854   2.444016   1.415199
    26  C    4.958360   5.168268   4.301940   2.876780   2.501108
    27  H   10.028709  10.491055   9.699217   8.275676   7.674104
    28  H    9.644297   9.781244   8.739166   7.357830   6.423715
    29  H    7.606144   7.563599   6.434863   5.104559   4.083445
    30  H    8.531911   9.249780   8.733813   7.371896   7.175817
    31  H    7.668950   8.611075   8.388285   7.175981   7.371921
    32  H    7.316534   8.466124   8.611922   7.674226   8.275688
    33  H    5.467214   6.645738   7.046897   6.423848   7.357888
    34  H    3.442322   4.434985   4.683737   4.083502   5.104589
    35  H    2.106808   3.340352   3.800068   3.391487   4.569879
    36  H    1.086109   2.143154   3.372654   3.914203   5.309823
    37  H    2.143014   1.085856   2.155960   3.456387   4.641221
    38  H    3.333042   2.101916   1.085656   2.196301   2.770490
    39  H    5.009101   3.978362   2.663887   2.770390   2.196334
    40  H    7.185894   6.290283   4.955742   4.641220   3.456438
    41  H    8.018882   7.490082   6.171743   5.309776   3.914146
    42  H    7.102262   6.978326   5.823316   4.569892   3.391443
                   21         22         23         24         25
    21  C    0.000000
    22  C    1.391517   0.000000
    23  C    2.378604   1.373909   0.000000
    24  C    2.718074   2.384900   1.394909   0.000000
    25  C    2.440720   2.863863   2.494291   1.425868   0.000000
    26  C    3.783453   4.315954   3.831382   2.540551   1.457401
    27  H    8.611856   8.465947   7.316342   6.157717   6.296913
    28  H    7.046819   6.645590   5.467072   4.577029   5.079622
    29  H    4.683767   4.434982   3.442356   2.470984   2.831593
    30  H    8.388172   8.610825   7.668686   6.313078   5.953229
    31  H    8.733891   9.249723   8.531850   7.138065   6.407200
    32  H    9.699287  10.491002  10.028657   8.674723   7.650342
    33  H    8.739289   9.781253   9.644294   8.428621   7.150559
    34  H    6.434952   7.563597   7.606151   6.527838   5.145536
    35  H    5.823297   6.978231   7.102237   6.139290   4.819936
    36  H    6.171775   7.490064   8.018920   7.399178   6.111245
    37  H    4.955695   6.290225   7.185891   6.982364   5.871359
    38  H    2.663965   3.978446   5.009222   5.054811   4.173513
    39  H    1.085664   2.101964   3.333096   3.801947   3.436239
    40  H    2.155977   1.085957   2.143061   3.379443   3.949304
    41  H    3.372581   2.143058   1.086076   2.157576   3.466922
    42  H    3.800089   3.340313   2.106802   1.088183   2.184781
                   26         27         28         29         30
    26  C    0.000000
    27  H    5.400011   0.000000
    28  H    4.693747   2.484545   0.000000
    29  H    2.798000   4.240123   2.413748   0.000000
    30  H    4.679983   2.410881   4.231516   4.881400   0.000000
    31  H    4.975682   4.401010   6.007977   6.089764   2.007309
    32  H    6.226118   6.753744   8.208242   7.910915   4.401111
    33  H    5.909152   8.208243   9.062008   8.104013   6.008020
    34  H    4.149769   7.910974   8.104044   6.604378   6.089829
    35  H    4.149781   8.542458   8.611075   6.933736   6.771910
    36  H    5.909175  10.801836  10.577187   8.611065   9.147761
    37  H    6.226034  11.568285  10.801695   8.542324  10.331894
    38  H    4.975595  10.331894   9.147623   6.771782   9.554870
    39  H    4.679952   9.653547   8.092525   5.709677   9.341614
    40  H    5.399966   9.392097   7.448111   5.326160   9.653494
    41  H    4.693778   7.448215   5.454941   3.781782   8.092555
    42  H    2.797973   5.326135   3.781692   2.111686   5.709581
                   31         32         33         34         35
    31  H    0.000000
    32  H    2.410938   0.000000
    33  H    4.231533   2.484464   0.000000
    34  H    4.881507   4.240151   2.413817   0.000000
    35  H    5.709896   5.326352   3.781783   2.111577   0.000000
    36  H    8.092754   7.448316   5.454956   3.781617   2.413785
    37  H    9.653658   9.392210   7.448215   5.326103   4.240091
    38  H    9.341728   9.653603   8.092591   5.709644   4.881432
    39  H    9.554934  10.331938   9.147722   6.771833   6.089738
    40  H   10.331933  11.568337  10.801814   8.542426   7.910913
    41  H    9.147749  10.801823  10.577196   8.611079   8.104011
    42  H    6.771798   8.542353   8.610988   6.933687   6.604311
                   36         37         38         39         40
    36  H    0.000000
    37  H    2.484523   0.000000
    38  H    4.231566   2.410881   0.000000
    39  H    6.008012   4.401022   2.007328   0.000000
    40  H    8.208308   6.753776   4.401160   2.410967   0.000000
    41  H    9.062065   8.208242   6.008065   4.231528   2.484426
    42  H    8.104045   7.910919   6.089843   4.881464   4.240133
                   41         42
    41  H    0.000000
    42  H    2.413874   0.000000
 Stoichiometry    C26H16
 Framework group  C2H[C2(C.C),X(C24H16)]
 Deg. of freedom    30
 Full point group                 C2H     NOp   4
 Largest Abelian subgroup         C2H     NOp   4
 Largest concise Abelian subgroup C2H     NOp   4
                         Standard orientation:                         
 ---------------------------------------------------------------------
 Center     Atomic      Atomic             Coordinates (Angstroms)
 Number     Number       Type             X           Y           Z
 ---------------------------------------------------------------------
      1          6           0       -0.345942   -3.737273   -2.841975
      2          6           0        0.175101   -2.639380   -3.482746
      3          6           0        0.345925   -1.456270   -2.763811
      4          6           0       -0.024002   -1.285505   -1.397436
      5          6           0       -0.367296   -2.474078   -0.710295
      6          6           0       -0.588930   -3.658639   -1.474059
      7          6           0       -0.367296   -2.474078    0.710295
      8          6           0       -0.588930   -3.658639    1.474059
      9          6           0       -0.345942   -3.737273    2.841975
     10          6           0        0.175101   -2.639380    3.482746
     11          6           0        0.345925   -1.456270    2.763811
     12          6           0       -0.024002   -1.285505    1.397436
     13          6           0        0.000000    0.000000    0.711039
     14          6           0        0.024002    1.285505    1.397436
     15          6           0       -0.345925    1.456270    2.763811
     16          6           0       -0.175101    2.639380    3.482746
     17          6           0        0.345942    3.737273    2.841975
     18          6           0        0.588930    3.658639    1.474059
     19          6           0        0.367296    2.474078    0.710295
     20          6           0        0.367296    2.474078   -0.710295
     21          6           0        0.588930    3.658639   -1.474059
     22          6           0        0.345942    3.737273   -2.841975
     23          6           0       -0.175101    2.639380   -3.482746
     24          6           0       -0.345925    1.456270   -2.763811
     25          6           0        0.024002    1.285505   -1.397436
     26          6           0        0.000000    0.000000   -0.711039
     27          1           0       -0.505157   -4.668855   -3.376844
     28          1           0        0.455130   -2.689254   -4.530963
     29          1           0        0.834685   -0.646680   -3.302139
     30          1           0       -0.920310   -4.579249   -1.003668
     31          1           0       -0.920310   -4.579249    1.003668
     32          1           0       -0.505157   -4.668855    3.376844
     33          1           0        0.455130   -2.689254    4.530963
     34          1           0        0.834685   -0.646680    3.302139
     35          1           0       -0.834685    0.646680    3.302139
     36          1           0       -0.455130    2.689254    4.530963
     37          1           0        0.505157    4.668855    3.376844
     38          1           0        0.920310    4.579249    1.003668
     39          1           0        0.920310    4.579249   -1.003668
     40          1           0        0.505157    4.668855   -3.376844
     41          1           0       -0.455130    2.689254   -4.530963
     42          1           0       -0.834685    0.646680   -3.302139
 ---------------------------------------------------------------------
 Rotational constants (GHZ):           0.2843669           0.2132675           0.1236289
 Standard basis: def2SVPP (5D, 7F)
 There are   107 symmetry adapted cartesian basis functions of AG  symmetry.
 There are   104 symmetry adapted cartesian basis functions of BG  symmetry.
 There are   107 symmetry adapted cartesian basis functions of AU  symmetry.
 There are   104 symmetry adapted cartesian basis functions of BU  symmetry.
 There are   100 symmetry adapted basis functions of AG  symmetry.
 There are    98 symmetry adapted basis functions of BG  symmetry.
 There are   100 symmetry adapted basis functions of AU  symmetry.
 There are    98 symmetry adapted basis functions of BU  symmetry.
   396 basis functions,   714 primitive gaussians,   422 cartesian basis functions
    86 alpha electrons       86 beta electrons
       nuclear repulsion energy      2068.4715896757 Hartrees.
 NAtoms=   42 NActive=   42 NUniq=   11 SFac= 4.00D+00 NAtFMM=   60 NAOKFM=F Big=F
 Integral buffers will be    131072 words long.
 Raffenetti 2 integral format.
 Two-electron integral symmetry is turned on.
 Nuclear repulsion after empirical dispersion term =     2068.3562001885 Hartrees.
 One-electron integrals computed using PRISM.
   4 Symmetry operations used in ECPInt.
 ECPInt:  NShTT=   17766 NPrTT=   71262 LenC2=   16253 LenP2D=   43467.
 LDataN:  DoStor=T MaxTD1= 4 Len=   56
 NBasis=   396 RedAO= T EigKep=  1.73D-04  NBF=   100    98   100    98
 NBsUse=   396 1.00D-06 EigRej= -1.00D+00 NBFU=   100    98   100    98
 ExpMin= 1.22D-01 ExpMax= 1.24D+03 ExpMxC= 1.86D+02 IAcc=3 IRadAn=         5 AccDes= 0.00D+00
 Harris functional with IExCor=  402 and IRadAn=       5 diagonalized for initial guess.
 HarFok:  IExCor=  402 AccDes= 0.00D+00 IRadAn=         5 IDoV= 1 UseB2=F ITyADJ=14
 ICtDFT=  3500011 ScaDFX=  1.000000  1.000000  1.000000  1.000000
 FoFCou: FMM=F IPFlag=           0 FMFlag=      100000 FMFlg1=           0
         NFxFlg=           0 DoJE=T BraDBF=F KetDBF=T FulRan=T
         wScrn=  0.000000 ICntrl=       500 IOpCl=  0 I1Cent=   200000004 NGrid=           0
         NMat0=    1 NMatS0=      1 NMatT0=    0 NMatD0=    1 NMtDS0=    0 NMtDT0=    0
 Petite list used in FoFCou.
 Initial guess orbital symmetries:
       Occupied  (BG) (AU) (BU) (AG) (BG) (BU) (AU) (AG) (AU) (BG)
                 (BU) (AG) (BG) (AU) (AG) (BU) (BU) (AG) (AU) (BG)
                 (BG) (AU) (BU) (AG) (AG) (AU) (AG) (BU) (AU) (BG)
                 (AG) (BU) (AG) (AU) (BU) (BG) (AU) (BG) (AG) (AG)
                 (AU) (BU) (BU) (AG) (BG) (AU) (BG) (BU) (AG) (AU)
                 (AG) (BG) (BU) (AU) (BU) (AU) (AG) (BG) (BU) (AG)
                 (BG) (AG) (AU) (BU) (BG) (BU) (AU) (AG) (BG) (AG)
                 (BU) (AU) (BU) (BG) (AU) (AG) (BG) (BU) (AG) (BU)
                 (BG) (AG) (AU) (BG) (AU) (BU)
       Virtual   (BG) (AG) (BU) (AG) (AU) (BU) (AU) (BG) (BG) (AG)
                 (BU) (AG) (BU) (AU) (BG) (AG) (AU) (BU) (AU) (AG)
                 (BG) (BU) (BG) (AU) (BU) (AG) (BU) (BG) (AU) (AG)
                 (AU) (BU) (AG) (BG) (BG) (AU) (BU) (AG) (BG) (AG)
                 (AU) (BU) (AG) (AU) (BU) (BG) (AU) (BG) (AG) (BU)
                 (BG) (AU) (AG) (BG) (AU) (BG) (BU) (AU) (BU) (AG)
                 (AG) (AU) (BU) (BG) (AU) (BG) (AG) (BU) (AG) (AG)
                 (BU) (BU) (AU) (AG) (BG) (BU) (BG) (AU) (AG) (AU)
                 (BU) (AG) (BG) (BU) (AG) (AU) (BU) (BG) (AG) (AU)
                 (BG) (AG) (BG) (AU) (BU) (BU) (AU) (AG) (BG) (AG)
                 (BU) (AU) (AU) (BG) (BU) (AG) (BG) (AU) (BU) (AU)
                 (BG) (AG) (BU) (BG) (BU) (AG) (AG) (AU) (BG) (AU)
                 (BG) (BU) (AU) (AG) (AU) (BG) (BU) (AG) (BU) (BG)
                 (BG) (AG) (AU) (BU) (AG) (AU) (AG) (BG) (BU) (AU)
                 (BU) (AG) (BU) (AU) (BG) (BG) (BG) (AU) (AG) (AU)
                 (BG) (AU) (BU) (AG) (AG) (BG) (BU) (AU) (BG) (AG)
                 (BU) (AU) (BU) (AU) (AG) (BU) (BG) (AG) (BU) (AU)
                 (BG) (BU) (AG) (AU) (BG) (AU) (BG) (AG) (BU) (BG)
                 (AU) (AG) (BU) (BU) (BG) (AG) (AG) (BU) (BG) (AU)
                 (BG) (BU) (AU) (AG) (AU) (BG) (AU) (BU) (AG) (BG)
                 (BU) (AG) (AG) (BG) (BU) (AU) (AG) (BU) (BG) (BU)
                 (AU) (AU) (BG) (AU) (AG) (BU) (BG) (AG) (BU) (AG)
                 (AU) (BG) (AG) (BG) (AU) (BU) (AG) (AU) (BU) (BG)
                 (AG) (AU) (BU) (BG) (AG) (BU) (BU) (AU) (AG) (BG)
                 (AU) (BG) (AG) (BG) (AU) (AU) (BU) (BG) (AG) (BU)
                 (BU) (BG) (AU) (AG) (AG) (AU) (BG) (BU) (AG) (BU)
                 (AU) (BG) (AU) (BU) (AG) (BG) (AG) (AU) (BG) (BU)
                 (BG) (AU) (AG) (BU) (AU) (BG) (AG) (BU) (AG) (AU)
                 (BU) (BG) (AG) (AU) (BG) (AG) (AU) (BU) (BG) (BU)
                 (AG) (AU) (BG) (BU) (AU) (AG) (BG) (AU) (BG) (AU)
                 (BU) (BG) (AU) (AG) (AG) (BU) (BG) (AU) (AU) (BG)
 The electronic state of the initial guess is 1-AG.
 Requested convergence on RMS density matrix=1.00D-08 within 128 cycles.
 Requested convergence on MAX density matrix=1.00D-06.
 Requested convergence on             energy=1.00D-06.
 No special actions if energy rises.
 Integral accuracy reduced to 1.0D-05 until final iterations.
 Initial convergence to 1.0D-05 achieved.  Increase integral accuracy.
 SCF Done:  E(RB3LYP) =  -999.793864974     A.U. after   15 cycles
            NFock= 15  Conv=0.82D-08     -V/T= 2.0107

 **********************************************************************

            Population analysis using the SCF Density.

 **********************************************************************

 Orbital symmetries:
       Occupied  (AG) (AU) (BG) (AU) (BU) (AG) (BU) (AG) (BG) (AU)
                 (AU) (BG) (BU) (AG) (BG) (AU) (AG) (BU) (BG) (AU)
                 (BU) (AG) (BG) (BU) (AU) (AG) (AG) (BU) (AU) (BG)
                 (AG) (BU) (AG) (AU) (BU) (BG) (AU) (BG) (AG) (AG)
                 (AU) (BU) (BU) (AG) (AU) (BG) (BG) (BU) (AG) (AU)
                 (BG) (AG) (BU) (AU) (BU) (AG) (BU) (BG) (AU) (AG)
                 (BG) (BU) (AU) (AG) (BU) (BG) (AG) (AU) (AG) (BG)
                 (BG) (BU) (AU) (AU) (BU) (AG) (BU) (BG) (AG) (BU)
                 (BG) (AG) (AU) (BG) (AU) (BU)
       Virtual   (BG) (AG) (BU) (AG) (AU) (BU) (AU) (BG) (AG) (BU)
                 (AU) (BG) (BG) (AG) (BU) (AU) (AG) (BU) (AG) (BG)
                 (BU) (BG) (AU) (AG) (BU) (AU) (AU) (BG) (AG) (BU)
                 (BG) (AU) (AG) (AU) (BU) (BU) (BG) (AG) (AU) (AG)
                 (BG) (BU) (AG) (BG) (AU) (AG) (BU) (BG) (BU) (AG)
                 (AU) (AU) (BG) (AU) (BG) (BU) (BG) (BU) (AG) (AU)
                 (AG) (BG) (BU) (AU) (AG) (BU) (AG) (AU) (BG) (BU)
                 (AU) (AG) (BU) (BU) (AG) (BG) (AU) (BG) (BU) (AG)
                 (BG) (AG) (AG) (AU) (BU) (AU) (BU) (BG) (AU) (AG)
                 (AG) (BG) (BU) (AU) (BG) (AU) (BU) (AG) (BG) (BU)
                 (AG) (AU) (BU) (BG) (AG) (AU) (BU) (AU) (BG) (BU)
                 (AG) (AU) (BG) (BG) (AU) (AG) (BU) (BG) (AG) (BG)
                 (AU) (AG) (AU) (BU) (AG) (BU) (BG) (AU) (BU) (BG)
                 (BG) (AG) (AU) (AU) (BU) (AG) (BU) (BG) (AG) (AU)
                 (BU) (AU) (BU) (AG) (BG) (BG) (BG) (AU) (AG) (AU)
                 (BG) (AU) (BU) (AG) (AG) (BG) (BU) (AU) (BG) (AG)
                 (AU) (BU) (BU) (AU) (AG) (BU) (BG) (AG) (AU) (BU)
                 (BG) (BU) (AG) (AU) (BG) (AU) (BG) (BU) (AG) (BG)
                 (BU) (AG) (AU) (BG) (AG) (BU) (AU) (AG) (BG) (BU)
                 (BG) (AU) (BU) (AG) (AU) (BG) (AU) (BU) (AG) (BG)
                 (BU) (AG) (AG) (BG) (AU) (BU) (AG) (BU) (BG) (BU)
                 (AU) (AU) (BG) (AU) (AG) (BG) (BU) (AG) (AG) (BU)
                 (AG) (AU) (BG) (BG) (AU) (BU) (AG) (AU) (BU) (BG)
                 (AU) (AG) (BU) (BG) (AG) (BU) (BU) (AU) (AG) (BG)
                 (AU) (BG) (AG) (BG) (AU) (AU) (BU) (BG) (AG) (BU)
                 (BU) (BG) (AU) (AG) (AU) (AG) (BG) (BU) (AG) (BU)
                 (AU) (BG) (AU) (BU) (AG) (BG) (AG) (AU) (BG) (BU)
                 (AU) (BG) (AG) (BU) (AU) (BG) (AG) (BU) (AG) (AU)
                 (BG) (BU) (AG) (AU) (BG) (AG) (AU) (BG) (BU) (AU)
                 (BU) (AG) (BG) (BU) (AU) (AG) (BG) (AU) (BG) (AU)
                 (BU) (BG) (AU) (AG) (AG) (BU) (BG) (AU) (AU) (BG)
 The electronic state is 1-AG.
 Alpha  occ. eigenvalues --  -10.20984 -10.20953 -10.20502 -10.20493 -10.20486
 Alpha  occ. eigenvalues --  -10.20483 -10.20153 -10.20152 -10.20127 -10.20127
 Alpha  occ. eigenvalues --  -10.19005 -10.19005 -10.18992 -10.18992 -10.18918
 Alpha  occ. eigenvalues --  -10.18917 -10.18914 -10.18913 -10.18765 -10.18765
 Alpha  occ. eigenvalues --  -10.18763 -10.18763 -10.18645 -10.18644 -10.18643
 Alpha  occ. eigenvalues --  -10.18643  -0.89288  -0.87072  -0.84964  -0.84113
 Alpha  occ. eigenvalues --   -0.81693  -0.78532  -0.77543  -0.76844  -0.74337
 Alpha  occ. eigenvalues --   -0.73229  -0.71839  -0.71512  -0.71000  -0.64017
 Alpha  occ. eigenvalues --   -0.63659  -0.63297  -0.62399  -0.59369  -0.58756
 Alpha  occ. eigenvalues --   -0.58562  -0.56285  -0.53751  -0.53131  -0.52667
 Alpha  occ. eigenvalues --   -0.49869  -0.49711  -0.48811  -0.48048  -0.47002
 Alpha  occ. eigenvalues --   -0.46385  -0.43924  -0.43885  -0.43873  -0.42819
 Alpha  occ. eigenvalues --   -0.42510  -0.42313  -0.42254  -0.41935  -0.41452
 Alpha  occ. eigenvalues --   -0.40479  -0.39663  -0.37843  -0.37388  -0.37169
 Alpha  occ. eigenvalues --   -0.36336  -0.36291  -0.36024  -0.34941  -0.34835
 Alpha  occ. eigenvalues --   -0.33249  -0.33063  -0.32153  -0.29574  -0.28620
 Alpha  occ. eigenvalues --   -0.27856  -0.25948  -0.25431  -0.22683  -0.22221
 Alpha  occ. eigenvalues --   -0.20653
 Alpha virt. eigenvalues --   -0.06509  -0.05031  -0.04220  -0.02949  -0.00680
 Alpha virt. eigenvalues --    0.01184   0.03268   0.03296   0.06075   0.06373
 Alpha virt. eigenvalues --    0.06942   0.07656   0.08249   0.08987   0.10002
 Alpha virt. eigenvalues --    0.10960   0.11518   0.12384   0.12419   0.12469
 Alpha virt. eigenvalues --    0.14022   0.14415   0.14698   0.16067   0.16352
 Alpha virt. eigenvalues --    0.17562   0.20397   0.20448   0.22050   0.22086
 Alpha virt. eigenvalues --    0.23060   0.24222   0.25855   0.25877   0.25880
 Alpha virt. eigenvalues --    0.26823   0.28115   0.28178   0.28648   0.29042
 Alpha virt. eigenvalues --    0.29248   0.29428   0.30527   0.30985   0.31651
 Alpha virt. eigenvalues --    0.31729   0.32160   0.34612   0.35152   0.35167
 Alpha virt. eigenvalues --    0.35188   0.35922   0.36215   0.37171   0.37994
 Alpha virt. eigenvalues --    0.38773   0.39673   0.39756   0.40542   0.42181
 Alpha virt. eigenvalues --    0.42494   0.42976   0.43678   0.43831   0.44291
 Alpha virt. eigenvalues --    0.45275   0.46169   0.46219   0.46456   0.46658
 Alpha virt. eigenvalues --    0.47376   0.47655   0.48017   0.48168   0.49058
 Alpha virt. eigenvalues --    0.49077   0.49254   0.49714   0.50086   0.50685
 Alpha virt. eigenvalues --    0.51249   0.51321   0.52395   0.52476   0.53412
 Alpha virt. eigenvalues --    0.53957   0.54049   0.56238   0.56550   0.56852
 Alpha virt. eigenvalues --    0.58312   0.58414   0.59214   0.59748   0.59790
 Alpha virt. eigenvalues --    0.61387   0.62663   0.63197   0.64148   0.64752
 Alpha virt. eigenvalues --    0.64761   0.65676   0.66041   0.66569   0.67846
 Alpha virt. eigenvalues --    0.68300   0.68618   0.68669   0.68735   0.69355
 Alpha virt. eigenvalues --    0.69816   0.70330   0.70677   0.71391   0.71678
 Alpha virt. eigenvalues --    0.71933   0.72743   0.73624   0.73878   0.74660
 Alpha virt. eigenvalues --    0.74764   0.75463   0.75744   0.75750   0.76276
 Alpha virt. eigenvalues --    0.76689   0.77259   0.77850   0.78635   0.79463
 Alpha virt. eigenvalues --    0.80032   0.80401   0.80483   0.82101   0.82137
 Alpha virt. eigenvalues --    0.83111   0.83740   0.83780   0.83837   0.85269
 Alpha virt. eigenvalues --    0.86513   0.86552   0.87290   0.88295   0.89068
 Alpha virt. eigenvalues --    0.92805   0.94501   0.94803   0.95730   0.96540
 Alpha virt. eigenvalues --    0.96989   0.99860   0.99923   1.03126   1.07240
 Alpha virt. eigenvalues --    1.08403   1.08589   1.10935   1.11734   1.13219
 Alpha virt. eigenvalues --    1.14458   1.14632   1.15370   1.15650   1.19375
 Alpha virt. eigenvalues --    1.20626   1.23665   1.25521   1.27026   1.27235
 Alpha virt. eigenvalues --    1.28586   1.29267   1.30077   1.31626   1.32781
 Alpha virt. eigenvalues --    1.32986   1.35704   1.36407   1.37912   1.38084
 Alpha virt. eigenvalues --    1.43836   1.44151   1.44625   1.44739   1.46427
 Alpha virt. eigenvalues --    1.46709   1.47224   1.47437   1.47827   1.48169
 Alpha virt. eigenvalues --    1.49584   1.49632   1.50983   1.50999   1.51610
 Alpha virt. eigenvalues --    1.52666   1.55666   1.55856   1.58516   1.63304
 Alpha virt. eigenvalues --    1.68019   1.68200   1.69247   1.69901   1.70758
 Alpha virt. eigenvalues --    1.71493   1.73168   1.74747   1.75329   1.75460
 Alpha virt. eigenvalues --    1.76172   1.78358   1.79741   1.79881   1.80967
 Alpha virt. eigenvalues --    1.81821   1.82826   1.84579   1.84912   1.85109
 Alpha virt. eigenvalues --    1.86472   1.86505   1.86766   1.90157   1.90662
 Alpha virt. eigenvalues --    1.92564   1.93404   1.94749   1.97820   1.99281
 Alpha virt. eigenvalues --    2.00492   2.00594   2.02317   2.04427   2.05578
 Alpha virt. eigenvalues --    2.05717   2.06555   2.08153   2.08154   2.08599
 Alpha virt. eigenvalues --    2.11515   2.11750   2.12024   2.12534   2.12598
 Alpha virt. eigenvalues --    2.17784   2.17798   2.18459   2.18675   2.21074
 Alpha virt. eigenvalues --    2.22330   2.23527   2.24195   2.24697   2.25474
 Alpha virt. eigenvalues --    2.25714   2.28021   2.29232   2.29394   2.31690
 Alpha virt. eigenvalues --    2.31841   2.32199   2.36427   2.37155   2.38392
 Alpha virt. eigenvalues --    2.39414   2.40247   2.41044   2.46220   2.46873
 Alpha virt. eigenvalues --    2.49630   2.49669   2.49808   2.51051   2.52814
 Alpha virt. eigenvalues --    2.54684   2.57772   2.58890   2.59448   2.59944
 Alpha virt. eigenvalues --    2.60305   2.61497   2.61580   2.62100   2.64241
 Alpha virt. eigenvalues --    2.66178   2.67394   2.68012   2.69193   2.70639
 Alpha virt. eigenvalues --    2.72146   2.72447   2.75054   2.76991   2.77180
 Alpha virt. eigenvalues --    2.82249   2.83777   2.84048   2.85711   2.89507
 Alpha virt. eigenvalues --    2.92650   3.00698   3.02413   3.07856   3.28066
 Alpha virt. eigenvalues --    3.29663   3.30348   3.37193   3.45988   3.55111
          Condensed to atoms (all electrons):
               1          2          3          4          5          6
     1  C    5.201278   0.169508   0.145252  -0.162402   0.119926   0.243131
     2  C    0.169508   5.195923   0.252904   0.125559  -0.158202   0.140235
     3  C    0.145252   0.252904   5.447251   0.232613   0.047968  -0.179524
     4  C   -0.162402   0.125559   0.232613   5.516182   0.210088   0.023930
     5  C    0.119926  -0.158202   0.047968   0.210088   5.489519   0.260198
     6  C    0.243131   0.140235  -0.179524   0.023930   0.260198   5.433039
     7  C    0.027281  -0.005510   0.031147  -0.052890   0.237377  -0.140218
     8  C    0.000955  -0.000024  -0.000446   0.019639  -0.140218  -0.027278
     9  C   -0.000153   0.000013  -0.000009   0.000377   0.027281   0.000955
    10  C    0.000013  -0.000002   0.000004  -0.000148  -0.005510  -0.000024
    11  C   -0.000009   0.000004   0.000034  -0.002509   0.031147  -0.000446
    12  C    0.000377  -0.000148  -0.002509  -0.109653  -0.052890   0.019639
    13  C    0.000032  -0.000353   0.017858  -0.016498  -0.104727  -0.001647
    14  C    0.000003  -0.000005  -0.000081   0.023428  -0.001721   0.000057
    15  C    0.000000  -0.000000   0.000006  -0.000081  -0.000089  -0.000000
    16  C   -0.000000   0.000000  -0.000000  -0.000005   0.000003  -0.000000
    17  C    0.000000  -0.000000   0.000000   0.000003  -0.000000   0.000000
    18  C    0.000000  -0.000000  -0.000000   0.000057  -0.000001  -0.000000
    19  C   -0.000000   0.000003  -0.000089  -0.001721  -0.000158  -0.000001
    20  C   -0.000001   0.000034  -0.000622   0.011000  -0.000049   0.000006
    21  C    0.000000  -0.000002   0.000022  -0.000051   0.000006  -0.000000
    22  C   -0.000000   0.000003  -0.000089  -0.000159  -0.000001   0.000000
    23  C    0.000003  -0.000080  -0.000365   0.001518   0.000034  -0.000002
    24  C   -0.000089  -0.000365  -0.001004  -0.043876  -0.000622   0.000022
    25  C   -0.000159   0.001518  -0.043876  -0.107078   0.011000  -0.000051
    26  C   -0.004313   0.017380  -0.128449   0.300542  -0.012798   0.022445
    27  H    0.436341  -0.087429   0.015794  -0.001562   0.015950  -0.075907
    28  H   -0.088170   0.438749  -0.076647   0.015509  -0.001459   0.015822
    29  H    0.015986  -0.070767   0.426660  -0.064085   0.016459  -0.001668
    30  H   -0.082426   0.017123  -0.002289   0.019282  -0.044175   0.419911
    31  H    0.001942  -0.000132   0.000082  -0.001585  -0.046297   0.010573
    32  H   -0.000002   0.000000  -0.000000   0.000009  -0.000233  -0.000001
    33  H   -0.000000   0.000000   0.000000   0.000001   0.000025  -0.000001
    34  H   -0.000000   0.000000  -0.000001  -0.000098  -0.000075   0.000009
    35  H   -0.000000  -0.000000   0.000000   0.000062  -0.000069   0.000000
    36  H   -0.000000  -0.000000   0.000000  -0.000000   0.000000   0.000000
    37  H   -0.000000   0.000000  -0.000000  -0.000000   0.000000   0.000000
    38  H   -0.000000   0.000000  -0.000000  -0.000002   0.000000  -0.000000
    39  H    0.000000  -0.000000   0.000001   0.000008  -0.000000   0.000000
    40  H    0.000000  -0.000000   0.000000   0.000002   0.000000  -0.000000
    41  H    0.000000  -0.000001   0.000010   0.000017   0.000001  -0.000000
    42  H   -0.000443   0.003773   0.003999   0.001954  -0.000990   0.000106
               7          8          9         10         11         12
     1  C    0.027281   0.000955  -0.000153   0.000013  -0.000009   0.000377
     2  C   -0.005510  -0.000024   0.000013  -0.000002   0.000004  -0.000148
     3  C    0.031147  -0.000446  -0.000009   0.000004   0.000034  -0.002509
     4  C   -0.052890   0.019639   0.000377  -0.000148  -0.002509  -0.109653
     5  C    0.237377  -0.140218   0.027281  -0.005510   0.031147  -0.052890
     6  C   -0.140218  -0.027278   0.000955  -0.000024  -0.000446   0.019639
     7  C    5.489519   0.260198   0.119926  -0.158202   0.047968   0.210088
     8  C    0.260198   5.433039   0.243131   0.140235  -0.179524   0.023930
     9  C    0.119926   0.243131   5.201278   0.169508   0.145252  -0.162402
    10  C   -0.158202   0.140235   0.169508   5.195923   0.252904   0.125559
    11  C    0.047968  -0.179524   0.145252   0.252904   5.447251   0.232613
    12  C    0.210088   0.023930  -0.162402   0.125559   0.232613   5.516182
    13  C   -0.012798   0.022445  -0.004313   0.017380  -0.128449   0.300542
    14  C    0.011000  -0.000051  -0.000159   0.001518  -0.043876  -0.107078
    15  C   -0.000622   0.000022  -0.000089  -0.000365  -0.001004  -0.043876
    16  C    0.000034  -0.000002   0.000003  -0.000080  -0.000365   0.001518
    17  C   -0.000001   0.000000  -0.000000   0.000003  -0.000089  -0.000159
    18  C    0.000006  -0.000000   0.000000  -0.000002   0.000022  -0.000051
    19  C   -0.000049   0.000006  -0.000001   0.000034  -0.000622   0.011000
    20  C   -0.000158  -0.000001  -0.000000   0.000003  -0.000089  -0.001721
    21  C   -0.000001  -0.000000   0.000000  -0.000000  -0.000000   0.000057
    22  C   -0.000000   0.000000   0.000000  -0.000000   0.000000   0.000003
    23  C    0.000003  -0.000000  -0.000000   0.000000  -0.000000  -0.000005
    24  C   -0.000089  -0.000000   0.000000  -0.000000   0.000006  -0.000081
    25  C   -0.001721   0.000057   0.000003  -0.000005  -0.000081   0.023428
    26  C   -0.104727  -0.001647   0.000032  -0.000353   0.017858  -0.016498
    27  H   -0.000233  -0.000001  -0.000002   0.000000  -0.000000   0.000009
    28  H    0.000025  -0.000001  -0.000000   0.000000   0.000000   0.000001
    29  H   -0.000075   0.000009  -0.000000   0.000000  -0.000001  -0.000098
    30  H   -0.046297   0.010573   0.001942  -0.000132   0.000082  -0.001585
    31  H   -0.044175   0.419911  -0.082426   0.017123  -0.002289   0.019282
    32  H    0.015950  -0.075907   0.436341  -0.087429   0.015794  -0.001562
    33  H   -0.001459   0.015822  -0.088170   0.438749  -0.076647   0.015509
    34  H    0.016459  -0.001668   0.015986  -0.070767   0.426660  -0.064085
    35  H   -0.000990   0.000106  -0.000443   0.003773   0.003999   0.001954
    36  H    0.000001  -0.000000   0.000000  -0.000001   0.000010   0.000017
    37  H    0.000000  -0.000000   0.000000  -0.000000   0.000000   0.000002
    38  H   -0.000000   0.000000   0.000000  -0.000000   0.000001   0.000008
    39  H    0.000000  -0.000000  -0.000000   0.000000  -0.000000  -0.000002
    40  H    0.000000   0.000000  -0.000000   0.000000  -0.000000  -0.000000
    41  H    0.000000   0.000000  -0.000000  -0.000000   0.000000  -0.000000
    42  H   -0.000069   0.000000  -0.000000  -0.000000   0.000000   0.000062
              13         14         15         16         17         18
     1  C    0.000032   0.000003   0.000000  -0.000000   0.000000   0.000000
     2  C   -0.000353  -0.000005  -0.000000   0.000000  -0.000000  -0.000000
     3  C    0.017858  -0.000081   0.000006  -0.000000   0.000000  -0.000000
     4  C   -0.016498   0.023428  -0.000081  -0.000005   0.000003   0.000057
     5  C   -0.104727  -0.001721  -0.000089   0.000003  -0.000000  -0.000001
     6  C   -0.001647   0.000057  -0.000000  -0.000000   0.000000  -0.000000
     7  C   -0.012798   0.011000  -0.000622   0.000034  -0.000001   0.000006
     8  C    0.022445  -0.000051   0.000022  -0.000002   0.000000  -0.000000
     9  C   -0.004313  -0.000159  -0.000089   0.000003  -0.000000   0.000000
    10  C    0.017380   0.001518  -0.000365  -0.000080   0.000003  -0.000002
    11  C   -0.128449  -0.043876  -0.001004  -0.000365  -0.000089   0.000022
    12  C    0.300542  -0.107078  -0.043876   0.001518  -0.000159  -0.000051
    13  C    5.499666   0.300542  -0.128449   0.017380  -0.004313   0.022445
    14  C    0.300542   5.516182   0.232613   0.125559  -0.162402   0.023930
    15  C   -0.128449   0.232613   5.447251   0.252904   0.145252  -0.179524
    16  C    0.017380   0.125559   0.252904   5.195923   0.169508   0.140235
    17  C   -0.004313  -0.162402   0.145252   0.169508   5.201278   0.243131
    18  C    0.022445   0.023930  -0.179524   0.140235   0.243131   5.433039
    19  C   -0.012798   0.210088   0.047968  -0.158202   0.119926   0.260198
    20  C   -0.104727  -0.052890   0.031147  -0.005510   0.027281  -0.140218
    21  C   -0.001647   0.019639  -0.000446  -0.000024   0.000955  -0.027278
    22  C    0.000032   0.000377  -0.000009   0.000013  -0.000153   0.000955
    23  C   -0.000353  -0.000148   0.000004  -0.000002   0.000013  -0.000024
    24  C    0.017858  -0.002509   0.000034   0.000004  -0.000009  -0.000446
    25  C   -0.016498  -0.109653  -0.002509  -0.000148   0.000377   0.019639
    26  C    0.288166  -0.016498   0.017858  -0.000353   0.000032  -0.001647
    27  H   -0.000001  -0.000000  -0.000000   0.000000  -0.000000   0.000000
    28  H    0.000002  -0.000000   0.000000  -0.000000  -0.000000   0.000000
    29  H   -0.000395   0.000062   0.000000  -0.000000  -0.000000   0.000000
    30  H   -0.000091  -0.000002  -0.000000   0.000000  -0.000000  -0.000000
    31  H    0.000014   0.000008   0.000001  -0.000000   0.000000   0.000000
    32  H    0.000020   0.000002   0.000000  -0.000000   0.000000  -0.000000
    33  H   -0.000232   0.000017   0.000010  -0.000001   0.000000  -0.000000
    34  H   -0.022068   0.001954   0.003999   0.003773  -0.000443   0.000106
    35  H   -0.022068  -0.064085   0.426660  -0.070767   0.015986  -0.001668
    36  H   -0.000232   0.015509  -0.076647   0.438749  -0.088170   0.015822
    37  H    0.000020  -0.001562   0.015794  -0.087429   0.436341  -0.075907
    38  H    0.000014   0.019282  -0.002289   0.017123  -0.082426   0.419911
    39  H   -0.000091  -0.001585   0.000082  -0.000132   0.001942   0.010573
    40  H   -0.000001   0.000009  -0.000000   0.000000  -0.000002  -0.000001
    41  H    0.000002   0.000001   0.000000   0.000000  -0.000000  -0.000001
    42  H   -0.000395  -0.000098  -0.000001   0.000000  -0.000000   0.000009
              19         20         21         22         23         24
     1  C   -0.000000  -0.000001   0.000000  -0.000000   0.000003  -0.000089
     2  C    0.000003   0.000034  -0.000002   0.000003  -0.000080  -0.000365
     3  C   -0.000089  -0.000622   0.000022  -0.000089  -0.000365  -0.001004
     4  C   -0.001721   0.011000  -0.000051  -0.000159   0.001518  -0.043876
     5  C   -0.000158  -0.000049   0.000006  -0.000001   0.000034  -0.000622
     6  C   -0.000001   0.000006  -0.000000   0.000000  -0.000002   0.000022
     7  C   -0.000049  -0.000158  -0.000001  -0.000000   0.000003  -0.000089
     8  C    0.000006  -0.000001  -0.000000   0.000000  -0.000000  -0.000000
     9  C   -0.000001  -0.000000   0.000000   0.000000  -0.000000   0.000000
    10  C    0.000034   0.000003  -0.000000  -0.000000   0.000000  -0.000000
    11  C   -0.000622  -0.000089  -0.000000   0.000000  -0.000000   0.000006
    12  C    0.011000  -0.001721   0.000057   0.000003  -0.000005  -0.000081
    13  C   -0.012798  -0.104727  -0.001647   0.000032  -0.000353   0.017858
    14  C    0.210088  -0.052890   0.019639   0.000377  -0.000148  -0.002509
    15  C    0.047968   0.031147  -0.000446  -0.000009   0.000004   0.000034
    16  C   -0.158202  -0.005510  -0.000024   0.000013  -0.000002   0.000004
    17  C    0.119926   0.027281   0.000955  -0.000153   0.000013  -0.000009
    18  C    0.260198  -0.140218  -0.027278   0.000955  -0.000024  -0.000446
    19  C    5.489519   0.237377  -0.140218   0.027281  -0.005510   0.031147
    20  C    0.237377   5.489519   0.260198   0.119926  -0.158202   0.047968
    21  C   -0.140218   0.260198   5.433039   0.243131   0.140235  -0.179524
    22  C    0.027281   0.119926   0.243131   5.201278   0.169508   0.145252
    23  C   -0.005510  -0.158202   0.140235   0.169508   5.195923   0.252904
    24  C    0.031147   0.047968  -0.179524   0.145252   0.252904   5.447251
    25  C   -0.052890   0.210088   0.023930  -0.162402   0.125559   0.232613
    26  C   -0.104727  -0.012798   0.022445  -0.004313   0.017380  -0.128449
    27  H    0.000000   0.000000  -0.000000   0.000000  -0.000000   0.000000
    28  H    0.000000   0.000001  -0.000000   0.000000  -0.000001   0.000010
    29  H   -0.000069  -0.000990   0.000106  -0.000443   0.003773   0.003999
    30  H    0.000000  -0.000000   0.000000   0.000000  -0.000000   0.000001
    31  H   -0.000000   0.000000  -0.000000  -0.000000   0.000000  -0.000000
    32  H    0.000000   0.000000   0.000000  -0.000000   0.000000  -0.000000
    33  H    0.000001   0.000000   0.000000  -0.000000  -0.000000   0.000000
    34  H   -0.000990  -0.000069   0.000000  -0.000000  -0.000000   0.000000
    35  H    0.016459  -0.000075   0.000009  -0.000000   0.000000  -0.000001
    36  H   -0.001459   0.000025  -0.000001  -0.000000   0.000000   0.000000
    37  H    0.015950  -0.000233  -0.000001  -0.000002   0.000000  -0.000000
    38  H   -0.044175  -0.046297   0.010573   0.001942  -0.000132   0.000082
    39  H   -0.046297  -0.044175   0.419911  -0.082426   0.017123  -0.002289
    40  H   -0.000233   0.015950  -0.075907   0.436341  -0.087429   0.015794
    41  H    0.000025  -0.001459   0.015822  -0.088170   0.438749  -0.076647
    42  H   -0.000075   0.016459  -0.001668   0.015986  -0.070767   0.426660
              25         26         27         28         29         30
     1  C   -0.000159  -0.004313   0.436341  -0.088170   0.015986  -0.082426
     2  C    0.001518   0.017380  -0.087429   0.438749  -0.070767   0.017123
     3  C   -0.043876  -0.128449   0.015794  -0.076647   0.426660  -0.002289
     4  C   -0.107078   0.300542  -0.001562   0.015509  -0.064085   0.019282
     5  C    0.011000  -0.012798   0.015950  -0.001459   0.016459  -0.044175
     6  C   -0.000051   0.022445  -0.075907   0.015822  -0.001668   0.419911
     7  C   -0.001721  -0.104727  -0.000233   0.000025  -0.000075  -0.046297
     8  C    0.000057  -0.001647  -0.000001  -0.000001   0.000009   0.010573
     9  C    0.000003   0.000032  -0.000002  -0.000000  -0.000000   0.001942
    10  C   -0.000005  -0.000353   0.000000   0.000000   0.000000  -0.000132
    11  C   -0.000081   0.017858  -0.000000   0.000000  -0.000001   0.000082
    12  C    0.023428  -0.016498   0.000009   0.000001  -0.000098  -0.001585
    13  C   -0.016498   0.288166  -0.000001   0.000002  -0.000395  -0.000091
    14  C   -0.109653  -0.016498  -0.000000  -0.000000   0.000062  -0.000002
    15  C   -0.002509   0.017858  -0.000000   0.000000   0.000000  -0.000000
    16  C   -0.000148  -0.000353   0.000000  -0.000000  -0.000000   0.000000
    17  C    0.000377   0.000032  -0.000000  -0.000000  -0.000000  -0.000000
    18  C    0.019639  -0.001647   0.000000   0.000000   0.000000  -0.000000
    19  C   -0.052890  -0.104727   0.000000   0.000000  -0.000069   0.000000
    20  C    0.210088  -0.012798   0.000000   0.000001  -0.000990  -0.000000
    21  C    0.023930   0.022445  -0.000000  -0.000000   0.000106   0.000000
    22  C   -0.162402  -0.004313   0.000000   0.000000  -0.000443   0.000000
    23  C    0.125559   0.017380  -0.000000  -0.000001   0.003773  -0.000000
    24  C    0.232613  -0.128449   0.000000   0.000010   0.003999   0.000001
    25  C    5.516182   0.300542   0.000002   0.000017   0.001954   0.000008
    26  C    0.300542   5.499666   0.000020  -0.000232  -0.022068   0.000014
    27  H    0.000002   0.000020   0.674791  -0.011928  -0.000371  -0.014005
    28  H    0.000017  -0.000232  -0.011928   0.671997  -0.013217  -0.000419
    29  H    0.001954  -0.022068  -0.000371  -0.013217   0.647328   0.000015
    30  H    0.000008   0.000014  -0.014005  -0.000419   0.000015   0.681371
    31  H   -0.000002  -0.000091   0.000048  -0.000000   0.000001  -0.002015
    32  H   -0.000000  -0.000001  -0.000000  -0.000000   0.000000   0.000048
    33  H   -0.000000   0.000002  -0.000000  -0.000000  -0.000000  -0.000000
    34  H    0.000062  -0.000395   0.000000  -0.000000  -0.000000   0.000001
    35  H   -0.000098  -0.000395  -0.000000   0.000000   0.000000  -0.000000
    36  H    0.000001   0.000002  -0.000000   0.000000   0.000000   0.000000
    37  H    0.000009  -0.000001  -0.000000  -0.000000  -0.000000   0.000000
    38  H   -0.001585  -0.000091   0.000000   0.000000  -0.000000  -0.000000
    39  H    0.019282   0.000014  -0.000000  -0.000000  -0.000001  -0.000000
    40  H   -0.001562   0.000020  -0.000000  -0.000000   0.000001  -0.000000
    41  H    0.015509  -0.000232  -0.000000  -0.000001   0.000205  -0.000000
    42  H   -0.064085  -0.022068   0.000001   0.000205  -0.008217  -0.000001
              31         32         33         34         35         36
     1  C    0.001942  -0.000002  -0.000000  -0.000000  -0.000000  -0.000000
     2  C   -0.000132   0.000000   0.000000   0.000000  -0.000000  -0.000000
     3  C    0.000082  -0.000000   0.000000  -0.000001   0.000000   0.000000
     4  C   -0.001585   0.000009   0.000001  -0.000098   0.000062  -0.000000
     5  C   -0.046297  -0.000233   0.000025  -0.000075  -0.000069   0.000000
     6  C    0.010573  -0.000001  -0.000001   0.000009   0.000000   0.000000
     7  C   -0.044175   0.015950  -0.001459   0.016459  -0.000990   0.000001
     8  C    0.419911  -0.075907   0.015822  -0.001668   0.000106  -0.000000
     9  C   -0.082426   0.436341  -0.088170   0.015986  -0.000443   0.000000
    10  C    0.017123  -0.087429   0.438749  -0.070767   0.003773  -0.000001
    11  C   -0.002289   0.015794  -0.076647   0.426660   0.003999   0.000010
    12  C    0.019282  -0.001562   0.015509  -0.064085   0.001954   0.000017
[...]
 0.00004969,0.00011193,0.00034191,0.00038902,0.00018064,0.00274354,0.00
 131014,0.00486564,0.00091465,-0.00207294,-0.00050656,-0.00019044,0.000
 95832,0.00752642,0.00295286,0.00371926,0.00366572,0.05997497,0.0338981
 0,-0.05449505,0.00017824,0.00375009,0.00280261,-0.00092824,0.00102308,
 -0.00274873,0.00039308,0.00017706,-0.00008401,-0.00021936,-0.00011111,
 -0.00038469,-0.00015264,0.00001293,0.00005418,0.00004641,0.00006710,0.
 00014267,0.00001930,-0.00007824,-0.00009648,-0.00003543,0.00018453,-0.
 00019669,0.00000132,-0.00000105,0.00000167,0.00000157,-0.00000160,0.00
 000151,0.00000204,-0.00000223,0.00000995,0.00000080,0.00000160,0.00000
 137,0.00000375,0.00000452,-0.00000690,0.00000078,0.00000117,0.00000082
 ,0.00000262,0.00000237,0.00000198,-0.00005388,0.00001236,-0.00000325,-
 0.00015010,-0.00021568,-0.00085154,-0.00005915,-0.00001141,0.00022910,
 -0.00138981,-0.00055217,-0.00439133,-0.06450998,-0.04167863,0.04274293
 ,0.00001278,0.00000598,-0.00000371,-0.00001490,0.00000478,0.00001059,0
 .00005006,0.00001167,-0.00002085,-0.00018191,-0.00035967,-0.00004279,-
 0.00006921,0.00009732,-0.00000430,-0.00002069,-0.00004145,0.00002042,-
 0.00002391,-0.00001298,-0.00001156,0.00002843,0.00000125,-0.00001792,-
 0.00001726,-0.00002619,-0.00000797,-0.00000836,-0.00001398,0.00000146,
 -0.00005049,0.00001746,0.00003576,0.00010487,-0.00002252,0.00002779,0.
 00002482,0.00006334,-0.00004765,-0.00011350,-0.00014996,-0.00022641,0.
 00009092,0.00013674,0.00006953,-0.00003574,0.00011106,-0.00010109,0.00
 078120,0.00006247,-0.00026227,-0.00054827,0.00117087,0.00056823,-0.000
 63476,0.00181542,-0.00070162,-0.01875407,0.01027186,0.00930058,-0.2673
 5025,0.08622066,0.09133384,0.00251987,-0.00255529,-0.00017928,0.001573
 47,-0.00030112,0.00137598,0.00060253,-0.00006848,-0.00041862,-0.001212
 65,-0.00482082,0.00046833,-0.00050596,0.00095956,0.00044604,-0.0000069
 8,0.00000149,-0.00000155,-0.00000323,0.00000597,0.00000278,-0.00000092
 ,-0.00002166,-0.00000548,-0.00001513,0.00000402,0.00000375,-0.00000188
 ,0.00000261,0.00000177,-0.00000100,-0.00000388,-0.00000083,-0.00000420
 ,-0.00000921,-0.00000111,0.00000098,-0.00001212,-0.00001982,0.00000164
 ,-0.00000802,0.00000745,0.00007198,0.00005022,-0.00002123,-0.00000437,
 -0.00001660,0.00003910,0.00191741,0.00063636,-0.00010054,0.28143123,0.
 00000086,-0.00000817,-0.00000083,0.00000924,0.00001045,0.00000279,-0.0
 0001049,-0.00002526,0.00004132,-0.00018646,-0.00021174,-0.00011223,-0.
 00005024,0.00005521,-0.00000593,-0.00001816,-0.00002164,0.00002649,-0.
 00000018,0.00002582,-0.00000619,0.00001093,-0.00000375,-0.00000423,-0.
 00000388,-0.00000292,-0.00000028,0.00000540,-0.00001227,-0.00000508,-0
 .00001617,-0.00000075,0.00001662,0.00005459,-0.00004611,0.00000082,-0.
 00004128,0.00016806,0.00002791,-0.00000905,0.00007789,0.00007981,0.000
 07561,0.00012707,-0.00005550,0.00010371,0.00003524,0.00001339,0.000203
 45,-0.00015296,0.00011187,-0.00171772,-0.00326338,-0.00008386,0.001666
 56,-0.00005182,0.00066708,-0.01401542,0.01191061,0.00622764,0.08480424
 ,-0.09265904,-0.03989047,0.02752896,-0.00632813,-0.01118063,-0.0012608
 3,-0.00431365,-0.00356176,-0.00086811,-0.00122485,0.00014589,-0.003349
 32,-0.00135187,-0.00117243,-0.00076510,0.00077802,0.00012743,0.0000006
 1,-0.00000053,-0.00000268,-0.00000520,0.00000042,-0.00000268,0.0000066
 8,-0.00000213,-0.00001329,-0.00000789,0.00000602,0.00000452,0.00000261
 ,0.00000073,-0.00000168,0.00000303,0.00000037,-0.00000143,-0.00000195,
 0.00000058,-0.00000049,-0.00000399,-0.00001159,-0.00001713,0.00000280,
 0.00002450,-0.00000666,0.00002027,0.00001639,-0.00004885,-0.00000224,0
 .00001929,-0.00002892,0.00021986,-0.00377144,-0.00062480,-0.09383780,0
 .09984477,0.00001279,0.00001431,0.00000228,-0.00002413,-0.00000659,0.0
 0001200,0.00006980,0.00008056,-0.00008112,0.00006895,-0.00001018,0.000
 09886,0.00001439,-0.00000190,0.00002857,0.00000463,-0.00000902,-0.0000
 1943,0.00000398,-0.00001203,0.00000489,-0.00000598,0.00000520,0.000001
 74,0.00000233,0.00000409,-0.00000040,0.00000198,0.00000505,-0.00000377
 ,0.00000528,0.00000405,-0.00001123,-0.00002192,-0.00000980,0.00003067,
 -0.00002422,-0.00009591,-0.00023639,0.00000648,0.00012738,-0.00005174,
 0.00007728,-0.00006620,0.00011100,-0.00012606,-0.00004158,0.00005337,-
 0.00020940,0.00013638,-0.00032708,-0.00000230,-0.00095042,-0.00015369,
 -0.00041503,-0.00049146,-0.00284358,-0.00246096,-0.00155058,0.00326887
 ,0.09163532,-0.03622293,-0.07387250,0.01059022,-0.00575810,-0.00007563
 ,-0.00027042,-0.00398857,0.00634584,0.00039540,0.00200136,0.00008319,0
 .00224833,-0.00240001,0.00427404,0.00022272,-0.00020102,0.00011207,0.0
 0000126,-0.00000142,-0.00000011,0.00000179,-0.00000248,0.00000069,-0.0
 0005162,-0.00001929,-0.00001066,0.00000262,-0.00000071,-0.00000690,0.0
 0000177,-0.00000168,0.00000052,0.00000202,0.00000097,0.00000161,0.0000
 0098,0.00000174,0.00000184,0.00000091,-0.00000277,0.00000654,0.0000033
 8,0.00001124,0.00000082,0.00000948,0.00001160,0.00008562,0.00000602,0.
 00002814,0.00000067,-0.00014589,-0.00072561,0.00139926,-0.10015872,0.0
 4823763,0.06630918,-0.00001175,-0.00001217,0.00000586,0.00002588,-0.00
 004445,-0.00001380,-0.00002447,0.00000977,-0.00006145,-0.00000332,-0.0
 0003408,-0.00003159,0.00001838,0.00002819,0.00000230,-0.00002038,0.000
 00141,0.00000510,-0.00001713,0.00001467,-0.00000655,0.00000454,-0.0000
 0985,-0.00000263,-0.00000548,-0.00000165,0.00000111,0.00000267,-0.0000
 0028,-0.00000356,-0.00001517,-0.00000318,-0.00000642,0.00002484,-0.000
 00206,0.00003342,-0.00009304,0.00009156,0.00003828,0.00017345,-0.00004
 448,-0.00016337,-0.00001550,0.00003258,-0.00000993,0.00004458,-0.00002
 930,0.00000702,-0.00003920,-0.00002603,0.00000755,-0.00003092,0.000020
 65,0.00003467,-0.00002055,-0.00008871,0.00006264,0.00165740,0.00033035
 ,0.00191432,0.00426803,0.00291884,0.00098476,-0.24443431,-0.13262116,0
 .01696217,-0.01590762,-0.01722756,-0.00071414,-0.00225008,0.00240718,0
 .00414663,0.00040818,0.00075789,0.00006498,-0.00006339,0.00000513,-0.0
 0029080,-0.00000876,0.00000018,0.00000437,-0.00000284,0.00000833,0.000
 00330,0.00001038,-0.00004093,0.00005381,-0.00000658,-0.00000166,0.0000
 0078,-0.00000100,0.00000303,0.00000202,-0.00000405,-0.00000334,0.00000
 028,-0.00000016,-0.00000472,-0.00000155,0.00000376,0.00000124,0.000004
 52,0.00000291,-0.00000372,-0.00000505,0.00000007,-0.00000693,0.0000002
 1,0.00000695,-0.00000760,-0.00000325,-0.00000573,-0.00000324,0.0000094
 9,0.00053499,0.00018470,-0.00154181,0.25580667,-0.00000157,0.00001122,
 0.00000036,-0.00001408,0.00000657,0.00000586,-0.00001881,0.00000625,-0
 .00001243,0.00000142,0.00001250,0.00004104,-0.00002622,0.00000915,-0.0
 0000788,0.00000940,0.00000353,-0.00000167,-0.00000104,-0.00002118,-0.0
 0000106,0.00000248,0.00000659,-0.00000003,-0.00000120,-0.00000789,-0.0
 0000361,-0.00000753,0.00000193,0.00000659,-0.00000072,-0.00000577,-0.0
 0000195,0.00000256,0.00002754,-0.00002420,0.00018368,-0.00017317,-0.00
 007719,-0.00000546,-0.00036555,0.00014460,-0.00009697,-0.00006242,0.00
 003606,-0.00005955,-0.00003042,-0.00000548,0.00005815,0.00006241,0.000
 00454,0.00000830,-0.00010252,-0.00006195,-0.00127328,0.00025814,0.0000
 6772,0.00145603,-0.00364477,-0.00411475,-0.02545530,-0.01236067,0.0018
 9286,-0.13182256,-0.14634538,0.00120008,0.01052454,0.01008164,-0.00085
 241,0.00144998,0.00085921,-0.00267269,0.00060450,-0.00034199,-0.000078
 53,0.00015900,0.00011303,0.00032036,-0.00000272,0.00000161,-0.00000033
 ,-0.00000024,0.00000268,-0.00000151,-0.00000297,0.00000455,-0.00000362
 ,-0.00000179,-0.00000188,0.00000117,-0.00000388,0.00000037,0.00000097,
 -0.00000334,-0.00000173,0.00000057,-0.00000049,-0.00000362,-0.00000048
 ,0.00000407,0.00000794,0.00000528,0.00000547,-0.00004681,0.00003170,0.
 00000139,-0.00000928,0.00000046,0.00001246,-0.00002372,0.00000112,0.00
 000351,0.00001847,-0.00002251,0.00059193,0.00070121,0.00163419,0.14343
 262,0.15098394,-0.00000871,0.00003284,-0.00001931,-0.00002811,0.000007
 67,0.00002458,0.00006276,-0.00006938,0.00006069,-0.00002881,-0.0001149
 4,-0.00003314,-0.00001427,0.00003481,0.00002796,0.00002856,-0.00002952
 ,-0.00001297,-0.00001037,-0.00001517,-0.00000455,0.00000158,0.00000468
 ,-0.00000081,0.00000034,-0.00000372,0.00000077,-0.00000382,0.00000674,
 -0.00000157,0.00000193,0.00002322,-0.00001560,-0.00003994,-0.00001198,
 0.00007315,-0.00000866,0.00016303,0.00012380,0.00028737,-0.00020155,-0
 .00043225,-0.00008668,-0.00002369,0.00001200,0.00001073,0.00000485,0.0
 0003647,0.00000932,0.00000229,-0.00002127,-0.00005868,0.00008209,0.000
 13963,-0.00077246,-0.00043639,0.00025817,0.00153024,-0.00375977,0.0062
 4938,-0.00942959,-0.00559691,0.00455118,0.01688185,0.00055414,-0.04287
 088,0.01053957,0.00833044,0.00341858,0.00353141,-0.00332024,0.00334907
 ,0.00017081,-0.00049757,-0.00088881,-0.00024672,0.00029630,-0.00073036
 ,0.00000387,0.00000150,-0.00000053,-0.00000315,0.00000376,0.00000755,0
 .00001837,0.00000767,-0.00001826,-0.00000231,0.00000201,0.00000082,-0.
 00000083,-0.00000143,0.00000161,0.00000028,0.00000057,0.00000006,0.000
 00077,0.00000032,0.00000131,0.00000107,-0.00000009,0.00000588,0.000016
 48,-0.00001944,-0.00000879,0.00000142,-0.00000047,0.00000049,-0.000000
 16,-0.00000668,-0.00000316,0.00003682,0.00003884,0.00000284,-0.0011991
 1,0.00169972,-0.00382077,-0.02020365,0.00105580,0.03265523,-0.00004269
 ,-0.00002058,0.00002065,0.00005237,0.00000511,0.00000229,-0.00011045,-
 0.00000056,-0.00003375,0.00011068,-0.00004875,0.00012594,0.00000272,0.
 00002285,-0.00003814,-0.00001682,0.00003237,0.00000205,0.00000437,-0.0
 0000377,0.00000303,0.00000172,0.00000503,-0.00000456,-0.00000745,-0.00
 000388,0.00000061,0.00000009,-0.00000026,-0.00000825,-0.00003877,-0.00
 000784,-0.00000022,0.00005592,-0.00008655,0.00001950,-0.00028946,-0.00
 014163,-0.00013847,-0.00007234,0.00003897,0.00000608,0.00002614,0.0000
 1732,0.00000523,-0.00000652,0.00000779,-0.00000374,0.00005808,-0.00000
 573,-0.00003621,-0.00008570,-0.00002087,0.00005262,0.00006874,0.000072
 74,-0.00028785,-0.00075932,-0.00007585,0.00011136,-0.00359090,0.000370
 07,0.00338614,0.00408978,0.02508030,0.01107062,-0.05593842,0.00189219,
 0.00817453,0.00362593,-0.02513912,-0.01170192,-0.00352595,-0.00241022,
 0.00231697,0.00053377,-0.00088054,-0.00042061,-0.00000160,0.00000028,-
 0.00000244,-0.00002979,0.00001434,-0.00001568,-0.00001012,-0.00006131,
 -0.00002892,-0.00000299,0.00000425,0.00000262,-0.00000420,-0.00000195,
 0.00000098,-0.00000016,-0.00000049,0.00000077,-0.00000219,-0.00000340,
 0.00000153,0.00000101,-0.00000113,0.00000087,-0.00000021,0.00000398,-0
 .00000137,0.00000795,0.00000498,0.00000488,-0.00000084,-0.00000054,0.0
 0000127,0.00008033,-0.00001286,0.00000818,-0.00007223,0.00115575,0.000
 23798,0.00076767,-0.00021366,-0.00151249,0.05435528,0.00000358,0.00004
 005,-0.00001367,-0.00003440,0.00001215,0.00003484,0.00002485,-0.000033
 67,0.00003751,0.00009622,-0.00003893,0.00001851,-0.00004721,0.00003316
 ,-0.00001425,0.00002333,-0.00002716,0.00000860,-0.00001602,-0.00004777
 ,-0.00000608,0.00001694,0.00001257,-0.00001186,-0.00001505,-0.00002660
 ,-0.00000366,-0.00001519,0.00000343,0.00000482,-0.00003712,0.00000295,
 0.00000650,0.00006930,-0.00006026,0.00004535,-0.00026564,-0.00017074,0
 .00008740,-0.00017338,0.00008048,-0.00005425,0.00003517,-0.00005623,-0
 .00001766,-0.00005201,-0.00000781,0.00001875,0.00003359,0.00005634,0.0
 0001859,0.00008751,-0.00006411,-0.00003810,0.00006985,0.00022500,0.000
 38876,-0.00042443,0.00026394,0.00052127,0.00145019,0.00205391,-0.00251
 095,-0.00191448,-0.00587955,-0.00339445,0.00047466,-0.28397905,-0.1133
 2198,0.00316276,-0.01102290,-0.00800568,-0.00371253,0.00079613,-0.0019
 9411,0.00065375,-0.00041028,-0.00040360,-0.00000952,0.00000232,-0.0000
 0534,-0.00001613,0.00001419,-0.00000184,0.00007192,-0.00004003,-0.0000
 0856,-0.00000682,-0.00000111,0.00000237,-0.00000921,0.00000058,0.00000
 174,-0.00000472,-0.00000362,0.00000032,-0.00000340,-0.00000745,-0.0000
 0239,0.00000446,0.00000477,0.00000166,-0.00000519,-0.00000444,0.000002
 10,-0.00000310,-0.00001214,-0.00000638,0.00000780,-0.00000782,-0.00000
 160,-0.00003322,0.00000386,-0.00003036,-0.00013697,-0.00027958,-0.0001
 2440,0.00073029,0.00008380,0.00140888,-0.00063677,0.29843661,-0.000065
 85,-0.00009209,0.00005386,0.00014749,-0.00003332,-0.00005724,-0.000284
 49,0.00005685,-0.00015967,0.00004853,-0.00009080,0.00004504,0.00004494
 ,-0.00003555,-0.00004497,-0.00006237,0.00009647,-0.00000051,0.00000418
 ,0.00005194,0.00000022,-0.00001451,-0.00002461,0.00000229,-0.00001419,
 0.00002008,0.00000928,0.00002018,0.00000913,-0.00000436,-0.00001863,-0
 .00002328,-0.00001460,0.00001803,0.00005809,-0.00004733,-0.00007406,0.
 00025744,-0.00029828,0.00029872,-0.00015609,0.00008074,-0.00008171,0.0
 0012748,0.00004540,0.00011956,-0.00000840,-0.00003676,-0.00009221,-0.0
 0011071,-0.00003578,-0.00005744,0.00005812,0.00005865,-0.00018286,-0.0
 0037964,-0.00078482,0.00078665,0.00126109,-0.00054680,0.00398993,-0.00
 215276,0.00345864,-0.00270983,-0.01170430,-0.00106871,0.01021474,-0.11
 368274,-0.09260340,-0.00076186,-0.00074296,0.00371827,0.00175110,-0.00
 063432,0.00688176,-0.00029363,-0.00023166,0.00034682,0.00000089,0.0000
 0063,0.00000668,-0.00002010,0.00000630,-0.00001321,-0.00009531,-0.0000
 7089,0.00003013,0.00000078,0.00000251,0.00000198,-0.00000111,-0.000000
 49,0.00000184,-0.00000155,-0.00000048,0.00000131,0.00000153,-0.0000023
 9,0.00000126,0.00000115,0.00000095,0.00000833,0.00000148,-0.00000746,-
 0.00000017,0.00000348,-0.00000094,0.00001874,0.00000229,-0.00000253,-0
 .00000006,-0.00003709,0.00002469,0.00008980,-0.00000964,-0.00080614,0.
 00002562,-0.00120238,0.00154480,-0.00226580,-0.01003174,0.12539723,0.0
 8638239,0.00002240,-0.00003210,0.00038204,-0.00059596,0.00006106,-0.00
 002691,-0.00287800,0.00063602,-0.00434655,-0.00010932,-0.00194982,-0.0
 0049199,0.00042614,0.00018782,0.00023824,-0.00024227,0.00009055,-0.000
 06354,0.00002531,0.00000233,-0.00000647,-0.00001782,0.00001683,0.00000
 649,0.00000617,0.00000122,-0.00000007,-0.00000935,0.00001625,0.0000041
 6,0.00003176,0.00001383,0.00000840,-0.00002447,0.00002471,-0.00001739,
 0.00007509,0.00023963,0.00009171,0.00013255,-0.00003760,0.00005472,-0.
 00004318,-0.00000142,-0.00000402,0.00001875,0.00000882,-0.00001157,-0.
 00000152,-0.00002399,-0.00001556,-0.00004508,-0.00004557,-0.00004639,0
 .00029135,-0.00019137,0.00005808,0.00186951,-0.00116702,0.00140844,0.0
 0009180,-0.00088303,-0.00074308,-0.00215421,-0.00433170,0.00113531,-0.
 01686832,0.01091469,0.01208357,-0.24532629,0.07918084,0.11492502,0.003
 39786,0.00054278,-0.00055721,-0.00132464,0.00020360,-0.00136233,0.0000
 0547,-0.00000164,0.00001903,-0.00001158,-0.00003984,-0.00011698,-0.002
 92018,-0.00086528,-0.00238463,-0.00000409,0.00000694,-0.00005388,0.000
 00098,-0.00000399,0.00000091,0.00000376,0.00000407,0.00000107,0.000001
 01,0.00000446,0.00000115,-0.00000295,-0.00000115,0.00000167,0.00000882
 ,0.00000244,0.00000348,-0.00000047,0.00000542,0.00000183,0.00000242,-0
 .00000249,0.00001321,0.00000156,-0.00000694,0.00000328,-0.00009532,0.0
 0011163,-0.00016964,-0.00077994,0.00050186,0.00052295,0.00076656,0.000
 55634,-0.00134311,0.26627570,0.00010027,0.00016243,-0.00011511,-0.0001
 2259,0.00009774,0.00010045,-0.00023757,0.00047778,0.00060297,-0.000131
 84,-0.00018027,-0.00044925,-0.00043401,-0.00024067,0.00017503,0.000167
 24,-0.00009568,-0.00009376,0.00001121,0.00002497,-0.00003587,-0.000030
 86,0.00000033,0.00002295,-0.00003773,0.00002478,0.00002383,0.00005653,
 0.00002860,0.00001009,-0.00002759,-0.00007220,-0.00004132,0.00012845,0
 .00015535,-0.00008445,0.00001201,-0.00047818,0.00008826,-0.00005219,0.
 00010015,-0.00000896,-0.00003239,-0.00004000,-0.00003644,-0.00004523,-
 0.00003504,0.00001860,0.00010816,0.00003964,-0.00003837,-0.00011524,-0
 .00041375,0.00004275,0.00124000,0.00022951,-0.00019927,-0.00248609,-0.
 00380480,-0.00371783,-0.00004795,-0.00015302,0.00015699,-0.00336667,-0
 .00090509,-0.00286117,-0.01751677,0.01015761,0.00811192,0.07947850,-0.
 08884222,-0.05448999,0.02419390,-0.00737907,-0.01217206,0.00146572,0.0
 0067333,0.00154711,0.00002659,0.00000762,0.00000116,0.00007175,-0.0000
 5113,0.00003446,0.00088699,0.00090819,0.00042325,0.00002289,-0.0000063
 8,0.00001236,-0.00001212,-0.00001159,-0.00000277,0.00000124,0.00000794
 ,-0.00000009,-0.00000113,0.00000477,0.00000095,-0.00000115,0.00001860,
 0.00001077,0.00000197,-0.00003004,0.00001474,-0.00000292,-0.00000521,0
 .00000637,0.00001084,-0.00004125,0.00001314,0.00000285,0.00002403,-0.0
 0000477,0.00017569,-0.00005907,0.00039073,-0.00076152,0.00028447,0.000
 34676,0.00104996,0.00005501,0.00202075,-0.08374922,0.08936180,-0.00002
 299,0.00027268,-0.00010037,-0.00036655,0.00020905,0.00013054,-0.001506
 57,-0.00040279,-0.00058613,0.00010121,-0.00098168,-0.00010497,-0.00019
 827,0.00019192,0.00007810,0.00029257,-0.00006922,-0.00010240,0.0000132
 6,-0.00017251,-0.00000769,0.00001969,0.00009381,-0.00000858,0.00000991
 ,-0.00005728,-0.00002068,-0.00008899,0.00004256,0.00001678,0.00004717,
 0.00008078,-0.00000829,-0.00016642,-0.00005171,0.00010847,-0.00003913,
 0.00071758,0.00029768,0.00028854,-0.00001869,-0.00029001,-0.00009241,0
 .00011040,0.00000418,0.00008260,-0.00003697,0.00000289,0.00003611,-0.0
 0005238,-0.00001064,-0.00015544,-0.00028783,0.00008959,0.00108583,-0.0
 0012794,0.00002714,0.00065404,-0.00346684,0.00330871,-0.00153382,-0.00
 103981,-0.00051449,0.00066559,-0.00108813,0.00653508,0.00059923,-0.000
 89617,0.00413493,0.11312866,-0.05620850,-0.10379300,0.01082744,-0.0000
 7468,-0.00014453,-0.00086039,0.00099534,-0.00246322,0.00006082,0.00001
 794,-0.00001641,-0.00001173,-0.00001567,0.00004269,-0.00213815,0.00006
 350,-0.00226729,-0.00000180,0.00001333,-0.00000325,-0.00001982,-0.0000
 1713,0.00000654,0.00000452,0.00000528,0.00000588,0.00000087,0.00000166
 ,0.00000833,0.00000167,0.00001077,0.00002536,0.00000609,-0.00002284,0.
 00000415,-0.00000184,-0.00000366,0.00000086,0.00000195,-0.00004033,-0.
 00001385,0.00000737,0.00001371,0.00000137,-0.00014935,0.00020321,-0.00
 074478,-0.00008768,-0.00005184,0.00014763,-0.00129035,0.00196596,-0.00
 328659,-0.11920344,0.06017512,0.09951027\\-0.00006716,-0.00004759,0.00
 001726,0.00005140,-0.00000963,-0.00001833,-0.00007931,0.00001791,0.000
 00590,0.00005465,-0.00002752,-0.00006787,-0.00004221,0.00002045,0.0000
 3650,0.00004470,0.00003595,-0.00001583,-0.00003830,-0.00003450,0.00002
 957,0.00004898,-0.00002434,-0.00002343,-0.00007282,0.00003202,0.000027
 29,0.00004923,0.00002092,-0.00001448,-0.00007593,-0.00002968,-0.000000
 09,0.00004908,0.00005076,-0.00005800,-0.00000667,0.00009380,0.00001183
 ,-0.00005465,0.00002752,0.00006787,0.00007931,-0.00001791,-0.00000590,
 -0.00005140,0.00000963,0.00001833,0.00006716,0.00004759,-0.00001726,-0
 .00004470,-0.00003595,0.00001583,0.00004221,-0.00002045,-0.00003650,0.
 00003830,0.00003450,-0.00002957,-0.00004898,0.00002434,0.00002343,0.00
 007282,-0.00003202,-0.00002729,-0.00004923,-0.00002092,0.00001448,0.00
 007593,0.00002968,0.00000009,-0.00004908,-0.00005076,0.00005800,0.0000
 0667,-0.00009380,-0.00001183,0.00001594,-0.00000513,0.00000506,0.00000
 517,0.00000049,-0.00000882,0.00004771,0.00001217,0.00001554,-0.0000166
 9,-0.00006230,0.00000057,-0.00002519,0.00005728,0.00001564,0.00001516,
 0.00000589,0.00000645,0.00000503,0.00000243,-0.00000858,0.00004921,-0.
 00000886,0.00001288,-0.00004771,-0.00001217,-0.00001554,-0.00000517,-0
 .00000049,0.00000882,-0.00001594,0.00000513,-0.00000506,0.00001669,0.0
 0006230,-0.00000057,0.00002519,-0.00005728,-0.00001564,-0.00001516,-0.
 00000589,-0.00000645,-0.00000503,-0.00000243,0.00000858,-0.00004921,0.
 00000886,-0.00001288\\\@
 The archive entry for this job was punched.


 THE PROGRESS OF RIVERS TO THE SEA IS NOT AS RAPID
 AS THAT OF MAN TO ERROR.
                                              -- VOLTAIRE
 Job cpu time:       0 days  1 hours  0 minutes 10.5 seconds.
 Elapsed time:       0 days  0 hours  7 minutes 31.4 seconds.
 File lengths (MBytes):  RWF=    319 Int=      0 D2E=      0 Chk=     15 Scr=      1
 Normal termination of Gaussian 16 at Tue Oct  8 21:39:00 2024.
