 Entering Gaussian System, Link 0=g16
 Initial command:
 /home/software/g16/l1.exe "/home/software/g16/scr/Gau-307077.inp" -scrdir="/home/software/g16/scr/"
 Default is to use a total of   8 processors:
                                8 via shared-memory
                                1 via Linda
 Entering Link 1 = /home/software/g16/l1.exe PID=    307078.
  
 Copyright (c) 1988-2019, Gaussian, Inc.  All Rights Reserved.
  
 This is part of the Gaussian(R) 16 program.  It is based on
 the Gaussian(R) 09 system (copyright 2009, Gaussian, Inc.),
 the Gaussian(R) 03 system (copyright 2003, Gaussian, Inc.),
 the Gaussian(R) 98 system (copyright 1998, Gaussian, Inc.),
 the Gaussian(R) 94 system (copyright 1995, Gaussian, Inc.),
 the Gaussian 92(TM) system (copyright 1992, Gaussian, Inc.),
 the Gaussian 90(TM) system (copyright 1990, Gaussian, Inc.),
 the Gaussian 88(TM) system (copyright 1988, Gaussian, Inc.),
 the Gaussian 86(TM) system (copyright 1986, Carnegie Mellon
 University), and the Gaussian 82(TM) system (copyright 1983,
 Carnegie Mellon University). Gaussian is a federally registered
 trademark of Gaussian, Inc.
  
 This software contains proprietary and confidential information,
 including trade secrets, belonging to Gaussian, Inc.
  
 This software is provided under written license and may be
 used, copied, transmitted, or stored only in accord with that
 written license.
  
 The following legend is applicable only to US Government
 contracts under FAR:
  
                    RESTRICTED RIGHTS LEGEND
  
 Use, reproduction and disclosure by the US Government is
 subject to restrictions as set forth in subparagraphs (a)
 and (c) of the Commercial Computer Software - Restricted
 Rights clause in FAR 52.227-19.
  
 Gaussian, Inc.
 340 Quinnipiac St., Bldg. 40, Wallingford CT 06492
  
  
 ---------------------------------------------------------------
 Warning -- This program may not be used in any manner that
 competes with the business of Gaussian, Inc. or will provide
 assistance to any competitor of Gaussian, Inc.  The licensee
 of this program is prohibited from giving any competitor of
 Gaussian, Inc. access to this program.  By using this program,
 the user acknowledges that Gaussian, Inc. is engaged in the
 business of creating and licensing software in the field of
 computational chemistry and represents and warrants to the
 licensee that it is not a competitor of Gaussian, Inc. and that
 it will not use this program in any manner prohibited above.
 ---------------------------------------------------------------
  

 Cite this work as:
 Gaussian 16, Revision C.01,
 M. J. Frisch, G. W. Trucks, H. B. Schlegel, G. E. Scuseria, 
 M. A. Robb, J. R. Cheeseman, G. Scalmani, V. Barone, 
 G. A. Petersson, H. Nakatsuji, X. Li, M. Caricato, A. V. Marenich, 
 J. Bloino, B. G. Janesko, R. Gomperts, B. Mennucci, H. P. Hratchian, 
 J. V. Ortiz, A. F. Izmaylov, J. L. Sonnenberg, D. Williams-Young, 
 F. Ding, F. Lipparini, F. Egidi, J. Goings, B. Peng, A. Petrone, 
 T. Henderson, D. Ranasinghe, V. G. Zakrzewski, J. Gao, N. Rega, 
 G. Zheng, W. Liang, M. Hada, M. Ehara, K. Toyota, R. Fukuda, 
 J. Hasegawa, M. Ishida, T. Nakajima, Y. Honda, O. Kitao, H. Nakai, 
 T. Vreven, K. Throssell, J. A. Montgomery, Jr., J. E. Peralta, 
 F. Ogliaro, M. J. Bearpark, J. J. Heyd, E. N. Brothers, K. N. Kudin, 
 V. N. Staroverov, T. A. Keith, R. Kobayashi, J. Normand, 
 K. Raghavachari, A. P. Rendell, J. C. Burant, S. S. Iyengar, 
 J. Tomasi, M. Cossi, J. M. Millam, M. Klene, C. Adamo, R. Cammi, 
 J. W. Ochterski, R. L. Martin, K. Morokuma, O. Farkas, 
 J. B. Foresman, and D. J. Fox, Gaussian, Inc., Wallingford CT, 2019.
 
 ******************************************
 Gaussian 16:  ES64L-G16RevC.01  3-Jul-2019
                11-Mar-2024 
 ******************************************
 %nprocshared=16
 Will use up to   16 processors via shared memory.
 %mem=5120MB
 ----------------------------------------------------------------------
 #N opt freq B3LYP/def2SVPP symm=veryloose em=gd3bj scale=0.961 press=0
 .987
 ----------------------------------------------------------------------
 1/18=20,19=15,26=3,38=1,113=-987000,114=961000/1,3;
 2/9=110,12=2,17=2,18=2,40=1/2;
 3/5=43,7=202,11=2,25=1,30=1,71=1,74=-5,124=41/1,2,3;
 4//1;
 5/5=2,38=5/2;
 6/7=2,8=2,9=2,10=2,28=1/1;
 7//1,2,3,16;
 1/18=20,19=15,26=3/3(2);
 2/9=110/2;
 99//99;
 2/9=110/2;
 3/5=43,7=202,11=2,25=1,30=1,71=1,74=-5,124=41/1,2,3;
 4/5=5,16=3,69=1/1;
 5/5=2,38=5/2;
 7//1,2,3,16;
 1/18=20,19=15,26=3/3(-5);
 2/9=110/2;
 6/7=2,8=2,9=2,10=2,19=2,28=1/1;
 99/9=1/99;
 ------------------------------
 c1ccc2c(c1)-c1cccc3cccc-2c13_1
 ------------------------------
 Symbolic Z-matrix:
 Charge =  0 Multiplicity = 1
 C                     3.66629   0.70267   0.02633 
 C                     3.66503  -0.70572   0.04852 
 C                     2.46752  -1.42757   0.02149 
 C                     1.28474  -0.71304  -0.01724 
 C                     1.28621   0.71137  -0.0253 
 C                     2.46961   1.42543  -0.01282 
 C                    -0.10599   1.13971  -0.01907 
 C                    -0.7126    2.38265   0.00803 
 C                    -2.11761   2.44299   0.03555 
 C                    -2.90546   1.27099   0.03817 
 C                    -2.29172   0.00268   0.01691 
 C                    -2.90836  -1.26402   0.03584 
 C                    -2.12323  -2.43732   0.01835 
 C                    -0.71784  -2.38052  -0.01274 
 C                    -0.10796  -1.13873  -0.02069 
 C                    -0.89929   0.00153  -0.01146 
 H                     4.61438   1.23578   0.04865 
 H                     4.61215  -1.23921   0.09347 
 H                     2.47289  -2.51127   0.04417 
 H                     2.47673   2.50914  -0.02255 
 H                    -0.12415   3.29422   0.01742 
 H                    -2.60961   3.41365   0.06292 
 H                    -3.98878   1.35332   0.0639 
 H                    -3.99168  -1.34382   0.0702 
 H                    -2.61732  -3.40723   0.03639 
 H                    -0.13203  -3.29375  -0.02338 
 

 GradGradGradGradGradGradGradGradGradGradGradGradGradGradGradGradGradGrad
 Berny optimization.
 Initialization pass.
                           ----------------------------
                           !    Initial Parameters    !
                           ! (Angstroms and Degrees)  !
 --------------------------                            --------------------------
 ! Name  Definition              Value          Derivative Info.                !
 --------------------------------------------------------------------------------
 ! R1    R(1,2)                  1.4086         estimate D2E/DX2                !
 ! R2    R(1,6)                  1.3986         estimate D2E/DX2                !
 ! R3    R(1,17)                 1.0879         estimate D2E/DX2                !
 ! R4    R(2,3)                  1.3985         estimate D2E/DX2                !
 ! R5    R(2,18)                 1.088          estimate D2E/DX2                !
 ! R6    R(3,4)                  1.3824         estimate D2E/DX2                !
 ! R7    R(3,19)                 1.084          estimate D2E/DX2                !
 ! R8    R(4,5)                  1.4244         estimate D2E/DX2                !
 ! R9    R(4,15)                 1.4563         estimate D2E/DX2                !
 ! R10   R(5,6)                  1.3822         estimate D2E/DX2                !
 ! R11   R(5,7)                  1.4566         estimate D2E/DX2                !
 ! R12   R(6,20)                 1.0838         estimate D2E/DX2                !
 ! R13   R(7,8)                  1.3833         estimate D2E/DX2                !
 ! R14   R(7,16)                 1.3874         estimate D2E/DX2                !
 ! R15   R(8,9)                  1.4066         estimate D2E/DX2                !
 ! R16   R(8,21)                 1.085          estimate D2E/DX2                !
 ! R17   R(9,10)                 1.4122         estimate D2E/DX2                !
 ! R18   R(9,22)                 1.0886         estimate D2E/DX2                !
 ! R19   R(10,11)                1.4092         estimate D2E/DX2                !
 ! R20   R(10,23)                1.0867         estimate D2E/DX2                !
 ! R21   R(11,12)                1.4089         estimate D2E/DX2                !
 ! R22   R(11,16)                1.3927         estimate D2E/DX2                !
 ! R23   R(12,13)                1.4119         estimate D2E/DX2                !
 ! R24   R(12,24)                1.0868         estimate D2E/DX2                !
 ! R25   R(13,14)                1.4069         estimate D2E/DX2                !
 ! R26   R(13,25)                1.0887         estimate D2E/DX2                !
 ! R27   R(14,15)                1.3835         estimate D2E/DX2                !
 ! R28   R(14,26)                1.085          estimate D2E/DX2                !
 ! R29   R(15,16)                1.388          estimate D2E/DX2                !
 ! A1    A(2,1,6)              121.0912         estimate D2E/DX2                !
 ! A2    A(2,1,17)             119.3682         estimate D2E/DX2                !
 ! A3    A(6,1,17)             119.5385         estimate D2E/DX2                !
 ! A4    A(1,2,3)              121.1014         estimate D2E/DX2                !
 ! A5    A(1,2,18)             119.3515         estimate D2E/DX2                !
 ! A6    A(3,2,18)             119.546          estimate D2E/DX2                !
 ! A7    A(2,3,4)              117.7997         estimate D2E/DX2                !
 ! A8    A(2,3,19)             120.7565         estimate D2E/DX2                !
 ! A9    A(4,3,19)             121.4385         estimate D2E/DX2                !
 ! A10   A(3,4,5)              121.074          estimate D2E/DX2                !
 ! A11   A(3,4,15)             131.852          estimate D2E/DX2                !
 ! A12   A(5,4,15)             107.0542         estimate D2E/DX2                !
 ! A13   A(4,5,6)              121.1604         estimate D2E/DX2                !
 ! A14   A(4,5,7)              107.0406         estimate D2E/DX2                !
 ! A15   A(6,5,7)              131.7862         estimate D2E/DX2                !
 ! A16   A(1,6,5)              117.7659         estimate D2E/DX2                !
 ! A17   A(1,6,20)             120.7564         estimate D2E/DX2                !
 ! A18   A(5,6,20)             121.4748         estimate D2E/DX2                !
 ! A19   A(5,7,8)              133.1119         estimate D2E/DX2                !
 ! A20   A(5,7,16)             107.7754         estimate D2E/DX2                !
 ! A21   A(8,7,16)             119.0958         estimate D2E/DX2                !
 ! A22   A(7,8,9)              118.4866         estimate D2E/DX2                !
 ! A23   A(7,8,21)             121.1453         estimate D2E/DX2                !
 ! A24   A(9,8,21)             120.3656         estimate D2E/DX2                !
 ! A25   A(8,9,10)             121.4466         estimate D2E/DX2                !
 ! A26   A(8,9,22)             119.3543         estimate D2E/DX2                !
 ! A27   A(10,9,22)            119.1975         estimate D2E/DX2                !
 ! A28   A(9,10,11)            120.2617         estimate D2E/DX2                !
 ! A29   A(9,10,23)            119.5578         estimate D2E/DX2                !
 ! A30   A(11,10,23)           120.1791         estimate D2E/DX2                !
 ! A31   A(10,11,12)           128.1963         estimate D2E/DX2                !
 ! A32   A(10,11,16)           115.8805         estimate D2E/DX2                !
 ! A33   A(12,11,16)           115.919          estimate D2E/DX2                !
 ! A34   A(11,12,13)           120.2372         estimate D2E/DX2                !
 ! A35   A(11,12,24)           120.1786         estimate D2E/DX2                !
 ! A36   A(13,12,24)           119.5831         estimate D2E/DX2                !
 ! A37   A(12,13,14)           121.4817         estimate D2E/DX2                !
 ! A38   A(12,13,25)           119.1955         estimate D2E/DX2                !
 ! A39   A(14,13,25)           119.3213         estimate D2E/DX2                !
 ! A40   A(13,14,15)           118.4716         estimate D2E/DX2                !
 ! A41   A(13,14,26)           120.3692         estimate D2E/DX2                !
 ! A42   A(15,14,26)           121.158          estimate D2E/DX2                !
 ! A43   A(4,15,14)            133.1511         estimate D2E/DX2                !
 ! A44   A(4,15,16)            107.7627         estimate D2E/DX2                !
 ! A45   A(14,15,16)           119.0789         estimate D2E/DX2                !
 ! A46   A(7,16,11)            124.8277         estimate D2E/DX2                !
 ! A47   A(7,16,15)            110.3606         estimate D2E/DX2                !
 ! A48   A(11,16,15)           124.8079         estimate D2E/DX2                !
 ! D1    D(6,1,2,3)              0.5094         estimate D2E/DX2                !
 ! D2    D(6,1,2,18)          -179.1198         estimate D2E/DX2                !
 ! D3    D(17,1,2,3)           179.981          estimate D2E/DX2                !
 ! D4    D(17,1,2,18)            0.3518         estimate D2E/DX2                !
 ! D5    D(2,1,6,5)              0.173          estimate D2E/DX2                !
 ! D6    D(2,1,6,20)           179.5571         estimate D2E/DX2                !
 ! D7    D(17,1,6,5)          -179.2977         estimate D2E/DX2                !
 ! D8    D(17,1,6,20)            0.0864         estimate D2E/DX2                !
 ! D9    D(1,2,3,4)             -0.4916         estimate D2E/DX2                !
 ! D10   D(1,2,3,19)          -179.6679         estimate D2E/DX2                !
 ! D11   D(18,2,3,4)           179.1369         estimate D2E/DX2                !
 ! D12   D(18,2,3,19)           -0.0393         estimate D2E/DX2                !
 ! D13   D(2,3,4,5)             -0.1833         estimate D2E/DX2                !
 ! D14   D(2,3,4,15)          -178.338          estimate D2E/DX2                !
 ! D15   D(19,3,4,5)           178.987          estimate D2E/DX2                !
 ! D16   D(19,3,4,15)            0.8323         estimate D2E/DX2                !
 ! D17   D(3,4,5,6)              0.8784         estimate D2E/DX2                !
 ! D18   D(3,4,5,7)           -177.9652         estimate D2E/DX2                !
 ! D19   D(15,4,5,6)           179.4408         estimate D2E/DX2                !
 ! D20   D(15,4,5,7)             0.5971         estimate D2E/DX2                !
 ! D21   D(3,4,15,14)           -1.4553         estimate D2E/DX2                !
 ! D22   D(3,4,15,16)          177.5225         estimate D2E/DX2                !
 ! D23   D(5,4,15,14)         -179.8022         estimate D2E/DX2                !
 ! D24   D(5,4,15,16)           -0.8243         estimate D2E/DX2                !
 ! D25   D(4,5,6,1)             -0.8488         estimate D2E/DX2                !
 ! D26   D(4,5,6,20)           179.7718         estimate D2E/DX2                !
 ! D27   D(7,5,6,1)            177.6685         estimate D2E/DX2                !
 ! D28   D(7,5,6,20)            -1.7109         estimate D2E/DX2                !
 ! D29   D(4,5,7,8)            178.2775         estimate D2E/DX2                !
 ! D30   D(4,5,7,16)            -0.1627         estimate D2E/DX2                !
 ! D31   D(6,5,7,8)             -0.3954         estimate D2E/DX2                !
 ! D32   D(6,5,7,16)          -178.8357         estimate D2E/DX2                !
 ! D33   D(5,7,8,9)           -178.6183         estimate D2E/DX2                !
 ! D34   D(5,7,8,21)             0.8143         estimate D2E/DX2                !
 ! D35   D(16,7,8,9)            -0.3181         estimate D2E/DX2                !
 ! D36   D(16,7,8,21)          179.1144         estimate D2E/DX2                !
 ! D37   D(5,7,16,11)          178.9533         estimate D2E/DX2                !
 ! D38   D(5,7,16,15)           -0.3665         estimate D2E/DX2                !
 ! D39   D(8,7,16,11)            0.2564         estimate D2E/DX2                !
 ! D40   D(8,7,16,15)         -179.0634         estimate D2E/DX2                !
 ! D41   D(7,8,9,10)             0.1079         estimate D2E/DX2                !
 ! D42   D(7,8,9,22)           179.6463         estimate D2E/DX2                !
 ! D43   D(21,8,9,10)         -179.3292         estimate D2E/DX2                !
 ! D44   D(21,8,9,22)            0.2092         estimate D2E/DX2                !
 ! D45   D(8,9,10,11)            0.1862         estimate D2E/DX2                !
 ! D46   D(8,9,10,23)          179.7497         estimate D2E/DX2                !
 ! D47   D(22,9,10,11)        -179.353          estimate D2E/DX2                !
 ! D48   D(22,9,10,23)           0.2105         estimate D2E/DX2                !
 ! D49   D(9,10,11,12)         178.9674         estimate D2E/DX2                !
 ! D50   D(9,10,11,16)          -0.2505         estimate D2E/DX2                !
 ! D51   D(23,10,11,12)         -0.5933         estimate D2E/DX2                !
 ! D52   D(23,10,11,16)       -179.8112         estimate D2E/DX2                !
 ! D53   D(10,11,12,13)       -179.5645         estimate D2E/DX2                !
 ! D54   D(10,11,12,24)          0.0578         estimate D2E/DX2                !
 ! D55   D(16,11,12,13)         -0.3468         estimate D2E/DX2                !
 ! D56   D(16,11,12,24)        179.2755         estimate D2E/DX2                !
 ! D57   D(10,11,16,7)           0.0346         estimate D2E/DX2                !
 ! D58   D(10,11,16,15)        179.2579         estimate D2E/DX2                !
 ! D59   D(12,11,16,7)        -179.282          estimate D2E/DX2                !
 ! D60   D(12,11,16,15)         -0.0587         estimate D2E/DX2                !
 ! D61   D(11,12,13,14)          0.2548         estimate D2E/DX2                !
 ! D62   D(11,12,13,25)        179.8205         estimate D2E/DX2                !
 ! D63   D(24,12,13,14)       -179.3698         estimate D2E/DX2                !
 ! D64   D(24,12,13,25)          0.1959         estimate D2E/DX2                !
 ! D65   D(12,13,14,15)          0.2552         estimate D2E/DX2                !
 ! D66   D(12,13,14,26)        179.8523         estimate D2E/DX2                !
 ! D67   D(25,13,14,15)       -179.3099         estimate D2E/DX2                !
 ! D68   D(25,13,14,26)          0.2872         estimate D2E/DX2                !
 ! D69   D(13,14,15,4)         178.2434         estimate D2E/DX2                !
 ! D70   D(13,14,15,16)         -0.6428         estimate D2E/DX2                !
 ! D71   D(26,14,15,4)          -1.3504         estimate D2E/DX2                !
 ! D72   D(26,14,15,16)        179.7634         estimate D2E/DX2                !
 ! D73   D(4,15,16,7)            0.7412         estimate D2E/DX2                !
 ! D74   D(4,15,16,11)        -178.5787         estimate D2E/DX2                !
 ! D75   D(14,15,16,7)         179.888          estimate D2E/DX2                !
 ! D76   D(14,15,16,11)          0.568          estimate D2E/DX2                !
 --------------------------------------------------------------------------------
 Trust Radius=3.00D-01 FncErr=1.00D-07 GrdErr=1.00D-06 EigMax=2.50D+02 EigMin=1.00D-04
 Number of steps in this run=    156 maximum allowed number of steps=    156.
 GradGradGradGradGradGradGradGradGradGradGradGradGradGradGradGradGradGrad

                          Input orientation:                          
 ---------------------------------------------------------------------
 Center     Atomic      Atomic             Coordinates (Angstroms)
 Number     Number       Type             X           Y           Z
 ---------------------------------------------------------------------
      1          6           0        3.666290    0.702670    0.026330
      2          6           0        3.665030   -0.705720    0.048520
      3          6           0        2.467520   -1.427570    0.021490
      4          6           0        1.284740   -0.713040   -0.017240
      5          6           0        1.286210    0.711370   -0.025300
      6          6           0        2.469610    1.425430   -0.012820
      7          6           0       -0.105990    1.139710   -0.019070
      8          6           0       -0.712600    2.382650    0.008030
      9          6           0       -2.117610    2.442990    0.035550
     10          6           0       -2.905460    1.270990    0.038170
     11          6           0       -2.291720    0.002680    0.016910
     12          6           0       -2.908360   -1.264020    0.035840
     13          6           0       -2.123230   -2.437320    0.018350
     14          6           0       -0.717840   -2.380520   -0.012740
     15          6           0       -0.107960   -1.138730   -0.020690
     16          6           0       -0.899290    0.001530   -0.011460
     17          1           0        4.614380    1.235780    0.048650
     18          1           0        4.612150   -1.239210    0.093470
     19          1           0        2.472890   -2.511270    0.044170
     20          1           0        2.476730    2.509140   -0.022550
     21          1           0       -0.124150    3.294220    0.017420
     22          1           0       -2.609610    3.413650    0.062920
     23          1           0       -3.988780    1.353320    0.063900
     24          1           0       -3.991680   -1.343820    0.070200
     25          1           0       -2.617320   -3.407230    0.036390
     26          1           0       -0.132030   -3.293750   -0.023380
 ---------------------------------------------------------------------
                    Distance matrix (angstroms):
                    1          2          3          4          5
     1  C    0.000000
     2  C    1.408565   0.000000
     3  C    2.444380   1.398509   0.000000
     4  C    2.770905   2.381209   1.382397   0.000000
     5  C    2.380656   2.769906   2.443920   1.424434   0.000000
     6  C    1.398556   2.444298   2.853207   2.444788   1.382199
     7  C    3.797784   4.198901   3.635316   2.316639   1.456618
     8  C    4.690133   5.357547   4.962975   3.684196   2.605672
     9  C    6.040058   6.584335   6.000404   4.641045   3.819450
    10  C    6.596289   6.861401   6.012605   4.636510   4.229338
    11  C    5.998996   5.998808   4.969507   3.647532   3.647685
    12  C    6.862506   6.597069   5.378386   4.229478   4.636844
    13  C    6.586209   6.041796   4.700488   3.819511   4.641167
    14  C    5.359868   4.692362   3.325027   2.605923   3.684584
    15  C    4.199753   3.798387   2.591969   1.456309   2.316593
    16  C    4.619258   4.619179   3.657707   2.297962   2.297928
    17  H    1.087924   2.161177   3.420991   3.858593   3.370043
    18  H    2.161031   1.087965   2.154089   3.370574   3.857557
    19  H    3.428401   2.163614   1.083951   2.156178   3.434886
    20  H    2.163510   3.428182   3.936967   3.435595   2.156229
    21  H    4.591693   5.509843   5.386285   4.247859   2.943137
    22  H    6.836496   7.506032   7.015438   5.674677   4.742100
    23  H    7.682763   7.925950   7.029862   5.664489   5.314657
    24  H    7.926825   7.683284   6.459927   5.314710   5.664720
    25  H    7.508338   6.838584   5.456636   4.742110   5.674876
    26  H    5.513717   4.595730   3.200360   2.944034   4.248811
                    6          7          8          9         10
     6  C    0.000000
     7  C    2.591407   0.000000
     8  C    3.323126   1.383333   0.000000
     9  C    4.698974   2.397527   1.406574   0.000000
    10  C    5.377530   2.803131   2.458726   1.412196   0.000000
    11  C    4.969443   2.464051   2.856214   2.446584   1.409163
    12  C    6.013158   3.692453   4.256799   3.790410   2.535013
    13  C    6.001332   4.106799   5.022160   4.880344   3.789966
    14  C    4.964382   3.573013   4.763218   5.022742   4.256971
    15  C    3.635773   2.278441   3.573028   4.107380   3.692725
    16  C    3.657455   1.387385   2.388507   2.728963   2.374597
    17  H    2.154016   4.721833   5.449190   6.839387   7.519930
    18  H    3.420831   5.285146   6.440352   7.671481   7.925820
    19  H    3.937114   4.470378   5.839444   6.754070   6.575118
    20  H    1.083777   2.923319   3.191984   4.595184   5.523103
    21  H    3.197011   2.154896   1.085044   2.167672   3.439415
    22  H    5.455019   3.383140   2.159773   1.088574   2.163130
    23  H    6.459248   3.889546   3.434530   2.165516   1.086749
    24  H    7.030214   4.612426   4.964152   4.225313   2.831630
    25  H    7.016686   5.194662   6.095201   5.871523   4.687085
    26  H    5.388813   4.433539   5.706099   6.070930   5.341587
                   11         12         13         14         15
    11  C    0.000000
    12  C    1.408947   0.000000
    13  C    2.445811   1.411867   0.000000
    14  C    2.856155   2.459128   1.406881   0.000000
    15  C    2.464354   2.803771   2.397743   1.383495   0.000000
    16  C    1.392719   2.374914   2.728902   2.388951   1.387977
    17  H    7.015395   7.927218   7.673850   6.443133   5.286171
    18  H    7.015096   7.520772   6.841524   5.451849   4.722559
    19  H    5.387225   5.523907   4.596787   3.193915   2.923843
    20  H    5.387208   6.575663   6.754907   5.840732   4.470747
    21  H    3.941141   5.341322   6.070162   5.705791   4.433143
    22  H    3.426060   4.687279   5.871320   6.095648   5.195133
    23  H    2.169435   2.831707   4.225080   4.964522   4.612833
    24  H    2.169278   1.086798   2.165534   3.435062   3.890193
    25  H    3.425475   2.162881   1.088658   2.159762   3.383229
    26  H    3.941108   3.439668   2.167969   1.085023   2.155156
                   16         17         18         19         20
    16  C    0.000000
    17  H    5.650446   0.000000
    18  H    5.650347   2.475397   0.000000
    19  H    4.205812   4.315829   2.489378   0.000000
    20  H    4.205442   2.489189   4.315508   5.020855   0.000000
    21  H    3.382822   5.166412   6.556700   6.359956   2.717080
    22  H    3.817498   7.545154   8.590917   7.806205   5.166846
    23  H    3.373124   8.603976   8.983211   7.529185   6.568578
    24  H    3.373353   8.984379   8.604497   6.569192   7.529557
    25  H    3.817533   8.593903   7.547768   5.168466   7.807449
    26  H    3.383445   6.561268   5.171270   2.720744   6.362324
                   21         22         23         24         25
    21  H    0.000000
    22  H    2.488744   0.000000
    23  H    4.324884   2.479329   0.000000
    24  H    6.039204   4.954159   2.697149   0.000000
    25  H    7.150223   6.820936   4.954240   2.479449   0.000000
    26  H    6.588101   7.150879   6.039652   4.325261   2.488597
                   26
    26  H    0.000000
 Stoichiometry    C16H10
 Framework group  C1[X(C16H10)]
 Deg. of freedom    72
 Full point group                 C1      NOp   1
 Largest Abelian subgroup         C1      NOp   1
 Largest concise Abelian subgroup C1      NOp   1
                         Standard orientation:                         
 ---------------------------------------------------------------------
 Center     Atomic      Atomic             Coordinates (Angstroms)
 Number     Number       Type             X           Y           Z
 ---------------------------------------------------------------------
      1          6           0        3.662042    0.703763    0.019835
      2          6           0        3.661492   -0.704615    0.042794
      3          6           0        2.464400   -1.427110    0.014546
      4          6           0        1.281297   -0.713224   -0.026167
      5          6           0        1.282029    0.711181   -0.035004
      6          6           0        2.465036    1.425871   -0.021321
      7          6           0       -0.110403    1.138792   -0.030882
      8          6           0       -0.717703    2.381427   -0.005279
      9          6           0       -2.122780    2.441042    0.020316
     10          6           0       -2.910016    1.268629    0.022517
     11          6           0       -2.295581    0.000631    0.002777
     12          6           0       -2.911580   -1.266383    0.021570
     13          6           0       -2.125810   -2.439279    0.005779
     14          6           0       -0.720410   -2.381756   -0.023450
     15          6           0       -0.111173   -1.139650   -0.031259
     16          6           0       -0.903114    0.000198   -0.023718
     17          1           0        4.609820    1.237384    0.043140
     18          1           0        4.608831   -1.237582    0.089311
     19          1           0        2.470309   -2.510795    0.037826
     20          1           0        2.471599    2.509579   -0.031635
     21          1           0       -0.129745    3.293311    0.004404
     22          1           0       -2.615327    3.411458    0.046493
     23          1           0       -3.993413    1.350402    0.046743
     24          1           0       -3.994903   -1.346735    0.054515
     25          1           0       -2.619414   -3.409439    0.023684
     26          1           0       -0.134106   -3.294683   -0.032802
 ---------------------------------------------------------------------
 Rotational constants (GHZ):           1.0386974           0.5025334           0.3387377
 Standard basis: def2SVPP (5D, 7F)
 There are   260 symmetry adapted cartesian basis functions of A   symmetry.
 There are   244 symmetry adapted basis functions of A   symmetry.
   244 basis functions,   440 primitive gaussians,   260 cartesian basis functions
    53 alpha electrons       53 beta electrons
       nuclear repulsion energy       959.4003079285 Hartrees.
 NAtoms=   26 NActive=   26 NUniq=   26 SFac= 1.00D+00 NAtFMM=   60 NAOKFM=F Big=F
 Integral buffers will be    131072 words long.
 Raffenetti 2 integral format.
 Two-electron integral symmetry is turned on.
 Nuclear repulsion after empirical dispersion term =      959.3377502295 Hartrees.
 One-electron integrals computed using PRISM.
   1 Symmetry operations used in ECPInt.
 ECPInt:  NShTT=    6786 NPrTT=   27266 LenC2=    6581 LenP2D=   19047.
 LDataN:  DoStor=T MaxTD1= 4 Len=   56
 NBasis=   244 RedAO= T EigKep=  1.98D-04  NBF=   244
 NBsUse=   244 1.00D-06 EigRej= -1.00D+00 NBFU=   244
 ExpMin= 1.22D-01 ExpMax= 1.24D+03 ExpMxC= 1.86D+02 IAcc=3 IRadAn=         5 AccDes= 0.00D+00
 Harris functional with IExCor=  402 and IRadAn=       5 diagonalized for initial guess.
 HarFok:  IExCor=  402 AccDes= 0.00D+00 IRadAn=         5 IDoV= 1 UseB2=F ITyADJ=14
 ICtDFT=  3500011 ScaDFX=  1.000000  1.000000  1.000000  1.000000
 FoFCou: FMM=F IPFlag=           0 FMFlag=      100000 FMFlg1=           0
         NFxFlg=           0 DoJE=T BraDBF=F KetDBF=T FulRan=T
         wScrn=  0.000000 ICntrl=       500 IOpCl=  0 I1Cent=   200000004 NGrid=           0
         NMat0=    1 NMatS0=      1 NMatT0=    0 NMatD0=    1 NMtDS0=    0 NMtDT0=    0
 Petite list used in FoFCou.
 Requested convergence on RMS density matrix=1.00D-08 within 128 cycles.
 Requested convergence on MAX density matrix=1.00D-06.
 Requested convergence on             energy=1.00D-06.
 No special actions if energy rises.
 Integral accuracy reduced to 1.0D-05 until final iterations.
 Initial convergence to 1.0D-05 achieved.  Increase integral accuracy.
 SCF Done:  E(RB3LYP) =  -615.345825864     A.U. after   14 cycles
            NFock= 14  Conv=0.85D-08     -V/T= 2.0103

 **********************************************************************

            Population analysis using the SCF Density.

 **********************************************************************

 Orbital symmetries:
       Occupied  (A) (A) (A) (A) (A) (A) (A) (A) (A) (A) (A) (A)
                 (A) (A) (A) (A) (A) (A) (A) (A) (A) (A) (A) (A)
                 (A) (A) (A) (A) (A) (A) (A) (A) (A) (A) (A) (A)
                 (A) (A) (A) (A) (A) (A) (A) (A) (A) (A) (A) (A)
                 (A) (A) (A) (A) (A)
       Virtual   (A) (A) (A) (A) (A) (A) (A) (A) (A) (A) (A) (A)
                 (A) (A) (A) (A) (A) (A) (A) (A) (A) (A) (A) (A)
                 (A) (A) (A) (A) (A) (A) (A) (A) (A) (A) (A) (A)
                 (A) (A) (A) (A) (A) (A) (A) (A) (A) (A) (A) (A)
                 (A) (A) (A) (A) (A) (A) (A) (A) (A) (A) (A) (A)
                 (A) (A) (A) (A) (A) (A) (A) (A) (A) (A) (A) (A)
                 (A) (A) (A) (A) (A) (A) (A) (A) (A) (A) (A) (A)
                 (A) (A) (A) (A) (A) (A) (A) (A) (A) (A) (A) (A)
                 (A) (A) (A) (A) (A) (A) (A) (A) (A) (A) (A) (A)
                 (A) (A) (A) (A) (A) (A) (A) (A) (A) (A) (A) (A)
                 (A) (A) (A) (A) (A) (A) (A) (A) (A) (A) (A) (A)
                 (A) (A) (A) (A) (A) (A) (A) (A) (A) (A) (A) (A)
                 (A) (A) (A) (A) (A) (A) (A) (A) (A) (A) (A) (A)
                 (A) (A) (A) (A) (A) (A) (A) (A) (A) (A) (A) (A)
                 (A) (A) (A) (A) (A) (A) (A) (A) (A) (A) (A) (A)
                 (A) (A) (A) (A) (A) (A) (A) (A) (A) (A) (A)
 The electronic state is 1-A.
 Alpha  occ. eigenvalues --  -10.19685 -10.19679 -10.19651 -10.19649 -10.19598
 Alpha  occ. eigenvalues --  -10.19593 -10.19586 -10.18962 -10.18942 -10.18921
 Alpha  occ. eigenvalues --  -10.18911 -10.18858 -10.18854 -10.18794 -10.18765
 Alpha  occ. eigenvalues --  -10.17317  -0.90269  -0.84973  -0.82228  -0.80102
 Alpha  occ. eigenvalues --   -0.75309  -0.74634  -0.71223  -0.71067  -0.63971
 Alpha  occ. eigenvalues --   -0.63928  -0.60159  -0.58930  -0.56820  -0.51872
 Alpha  occ. eigenvalues --   -0.51388  -0.50900  -0.49461  -0.46313  -0.45206
 Alpha  occ. eigenvalues --   -0.43462  -0.43295  -0.42504  -0.42319  -0.41787
 Alpha  occ. eigenvalues --   -0.40435  -0.39379  -0.36958  -0.35921  -0.35340
 Alpha  occ. eigenvalues --   -0.34024  -0.33923  -0.33552  -0.30955  -0.27254
 Alpha  occ. eigenvalues --   -0.25728  -0.22457  -0.21789
 Alpha virt. eigenvalues --   -0.07661  -0.02674  -0.00869   0.01692   0.05439
 Alpha virt. eigenvalues --    0.06282   0.07222   0.07428   0.08441   0.09634
 Alpha virt. eigenvalues --    0.09924   0.11939   0.12677   0.14705   0.16447
 Alpha virt. eigenvalues --    0.18004   0.18605   0.21219   0.23655   0.24126
 Alpha virt. eigenvalues --    0.25144   0.25380   0.26281   0.26850   0.28934
 Alpha virt. eigenvalues --    0.29214   0.30014   0.31471   0.31910   0.32605
 Alpha virt. eigenvalues --    0.33837   0.35248   0.36754   0.37555   0.38494
 Alpha virt. eigenvalues --    0.39021   0.40837   0.42482   0.43250   0.44394
 Alpha virt. eigenvalues --    0.45043   0.45405   0.46448   0.47427   0.47956
 Alpha virt. eigenvalues --    0.48273   0.49024   0.49859   0.50622   0.50862
 Alpha virt. eigenvalues --    0.51482   0.52596   0.52627   0.52757   0.54893
 Alpha virt. eigenvalues --    0.56238   0.56637   0.57350   0.57848   0.60989
 Alpha virt. eigenvalues --    0.61897   0.63493   0.65597   0.66103   0.66409
 Alpha virt. eigenvalues --    0.67092   0.67870   0.68946   0.69254   0.69578
 Alpha virt. eigenvalues --    0.70715   0.71325   0.71811   0.72131   0.72328
 Alpha virt. eigenvalues --    0.73267   0.74654   0.74895   0.75261   0.75730
 Alpha virt. eigenvalues --    0.76173   0.78652   0.79672   0.80455   0.81569
 Alpha virt. eigenvalues --    0.81736   0.84419   0.85084   0.86933   0.90975
 Alpha virt. eigenvalues --    0.94418   0.94459   0.95324   0.97967   1.01756
 Alpha virt. eigenvalues --    1.07904   1.08708   1.13022   1.14786   1.15228
 Alpha virt. eigenvalues --    1.20035   1.21897   1.23950   1.24578   1.25664
 Alpha virt. eigenvalues --    1.26668   1.30038   1.31802   1.32347   1.34046
 Alpha virt. eigenvalues --    1.36046   1.36648   1.39201   1.44695   1.45570
 Alpha virt. eigenvalues --    1.45895   1.46266   1.46906   1.47388   1.48626
 Alpha virt. eigenvalues --    1.48899   1.49542   1.51399   1.60478   1.65968
 Alpha virt. eigenvalues --    1.72288   1.74697   1.75521   1.75607   1.76471
 Alpha virt. eigenvalues --    1.77484   1.78842   1.81621   1.84452   1.84572
 Alpha virt. eigenvalues --    1.86740   1.87342   1.87643   1.91963   1.92248
 Alpha virt. eigenvalues --    1.94624   1.98758   2.01173   2.04657   2.05260
 Alpha virt. eigenvalues --    2.06558   2.09412   2.11689   2.13045   2.13539
 Alpha virt. eigenvalues --    2.13567   2.15620   2.16894   2.18559   2.20936
 Alpha virt. eigenvalues --    2.22988   2.23529   2.25259   2.25681   2.25994
 Alpha virt. eigenvalues --    2.28745   2.31649   2.35622   2.41029   2.43221
 Alpha virt. eigenvalues --    2.46442   2.46734   2.46943   2.49799   2.53610
 Alpha virt. eigenvalues --    2.56717   2.61980   2.62150   2.65839   2.66109
 Alpha virt. eigenvalues --    2.67788   2.69600   2.70306   2.71790   2.73600
 Alpha virt. eigenvalues --    2.75864   2.76996   2.86005   2.87216   2.90338
 Alpha virt. eigenvalues --    2.93734   3.13963   3.28249   3.34018   3.41020
 Alpha virt. eigenvalues --    3.56684
          Condensed to atoms (all electrons):
               1          2          3          4          5          6
     1  C    5.201134   0.230513   0.133733  -0.185703   0.164369   0.198565
     2  C    0.230513   5.201134   0.198851   0.164119  -0.185862   0.133598
     3  C    0.133733   0.198851   5.435394   0.253286   0.039835  -0.150216
     4  C   -0.185703   0.164119   0.253286   5.632233   0.115157   0.039315
     5  C    0.164369  -0.185862   0.039835   0.115157   5.631988   0.252823
     6  C    0.198565   0.133598  -0.150216   0.039315   0.252823   5.436480
     7  C    0.020414  -0.001364   0.025774  -0.068590   0.186266  -0.154142
     8  C   -0.000261   0.000072  -0.000452   0.021057  -0.169795  -0.016346
     9  C   -0.000017   0.000005  -0.000009  -0.000474   0.021182  -0.000319
    10  C    0.000004  -0.000002   0.000021  -0.000423  -0.003287   0.000050
    11  C    0.000006   0.000006  -0.000712   0.029409   0.029326  -0.000717
    12  C   -0.000002   0.000004   0.000050  -0.003303  -0.000418   0.000021
    13  C    0.000004  -0.000017  -0.000315   0.021179  -0.000480  -0.000009
    14  C    0.000073  -0.000266  -0.016248  -0.169949   0.021046  -0.000455
    15  C   -0.001363   0.020385  -0.154193   0.185982  -0.068408   0.025740
    16  C   -0.000654  -0.000645   0.021075  -0.077837  -0.077757   0.021228
    17  H    0.427762  -0.076022   0.014266  -0.001148   0.014632  -0.075972
    18  H   -0.076043   0.427824  -0.076007   0.014638  -0.001160   0.014282
    19  H    0.014738  -0.088656   0.432501  -0.062234   0.021292  -0.002689
    20  H   -0.088676   0.014755  -0.002700   0.021275  -0.062246   0.432585
    21  H    0.000123  -0.000016   0.000034  -0.000904  -0.027704   0.006311
    22  H   -0.000000  -0.000000  -0.000000   0.000014  -0.000444  -0.000001
    23  H    0.000000   0.000000  -0.000000   0.000016   0.000046  -0.000000
    24  H    0.000000   0.000000  -0.000000   0.000046   0.000016  -0.000000
    25  H   -0.000000  -0.000000  -0.000001  -0.000444   0.000014  -0.000000
    26  H   -0.000016   0.000122   0.006251  -0.027630  -0.000901   0.000034
               7          8          9         10         11         12
     1  C    0.020414  -0.000261  -0.000017   0.000004   0.000006  -0.000002
     2  C   -0.001364   0.000072   0.000005  -0.000002   0.000006   0.000004
     3  C    0.025774  -0.000452  -0.000009   0.000021  -0.000712   0.000050
     4  C   -0.068590   0.021057  -0.000474  -0.000423   0.029409  -0.003303
     5  C    0.186266  -0.169795   0.021182  -0.003287   0.029326  -0.000418
     6  C   -0.154142  -0.016346  -0.000319   0.000050  -0.000717   0.000021
     7  C    5.672015   0.242179   0.167665  -0.192786  -0.011401   0.037240
     8  C    0.242179   5.514997   0.157111   0.144297  -0.155811  -0.004187
     9  C    0.167665   0.157111   5.199894   0.241210   0.140475   0.017944
    10  C   -0.192786   0.144297   0.241210   5.479503   0.216634  -0.181090
    11  C   -0.011401  -0.155811   0.140475   0.216634   5.440160   0.216487
    12  C    0.037240  -0.004187   0.017944  -0.181090   0.216487   5.479638
    13  C   -0.003749   0.000430  -0.000813   0.017952   0.140646   0.241062
    14  C    0.031117  -0.001671   0.000429  -0.004173  -0.155826   0.144222
    15  C   -0.115581   0.031064  -0.003747   0.037192  -0.011396  -0.192597
    16  C    0.102106   0.046282  -0.178541   0.055589   0.013910   0.055324
    17  H   -0.000584  -0.000004  -0.000000  -0.000000  -0.000000   0.000000
    18  H    0.000047  -0.000000  -0.000000   0.000000  -0.000000  -0.000000
    19  H   -0.000552   0.000014  -0.000001   0.000001   0.000036  -0.000022
    20  H   -0.029563   0.005589   0.000208  -0.000022   0.000037   0.000001
    21  H   -0.060741   0.429025  -0.090204   0.013820  -0.001948   0.000026
    22  H    0.015256  -0.078709   0.430771  -0.074769   0.015270  -0.000328
    23  H   -0.001344   0.013582  -0.078036   0.423623  -0.071826  -0.017577
    24  H   -0.000588   0.000048  -0.000235  -0.017574  -0.071841   0.423719
    25  H    0.000043  -0.000001   0.000008  -0.000330   0.015270  -0.074758
    26  H   -0.000546   0.000011   0.000002   0.000026  -0.001947   0.013820
              13         14         15         16         17         18
     1  C    0.000004   0.000073  -0.001363  -0.000654   0.427762  -0.076043
     2  C   -0.000017  -0.000266   0.020385  -0.000645  -0.076022   0.427824
     3  C   -0.000315  -0.016248  -0.154193   0.021075   0.014266  -0.076007
     4  C    0.021179  -0.169949   0.185982  -0.077837  -0.001148   0.014638
     5  C   -0.000480   0.021046  -0.068408  -0.077757   0.014632  -0.001160
     6  C   -0.000009  -0.000455   0.025740   0.021228  -0.075972   0.014282
     7  C   -0.003749   0.031117  -0.115581   0.102106  -0.000584   0.000047
     8  C    0.000430  -0.001671   0.031064   0.046282  -0.000004  -0.000000
     9  C   -0.000813   0.000429  -0.003747  -0.178541  -0.000000  -0.000000
    10  C    0.017952  -0.004173   0.037192   0.055589  -0.000000   0.000000
    11  C    0.140646  -0.155826  -0.011396   0.013910  -0.000000  -0.000000
    12  C    0.241062   0.144222  -0.192597   0.055324   0.000000  -0.000000
    13  C    5.200031   0.157144   0.167679  -0.178449  -0.000000  -0.000000
    14  C    0.157144   5.514827   0.242176   0.046216  -0.000000  -0.000004
    15  C    0.167679   0.242176   5.671517   0.102946   0.000048  -0.000582
    16  C   -0.178449   0.046216   0.102946   5.984726   0.000017   0.000017
    17  H   -0.000000  -0.000000   0.000048   0.000017   0.670260  -0.012327
    18  H   -0.000000  -0.000004  -0.000582   0.000017  -0.012327   0.670216
    19  H    0.000205   0.005595  -0.029547  -0.000963  -0.000255  -0.011259
    20  H   -0.000001   0.000014  -0.000551  -0.000962  -0.011256  -0.000255
    21  H    0.000002   0.000011  -0.000544   0.023473   0.000004  -0.000000
    22  H    0.000008  -0.000001   0.000043  -0.001764   0.000000  -0.000000
    23  H   -0.000234   0.000048  -0.000589   0.020130  -0.000000  -0.000000
    24  H   -0.078072   0.013570  -0.001351   0.020135  -0.000000  -0.000000
    25  H    0.430644  -0.078615   0.015234  -0.001752  -0.000000   0.000000
    26  H   -0.090148   0.429051  -0.060755   0.023444  -0.000000   0.000004
              19         20         21         22         23         24
     1  C    0.014738  -0.088676   0.000123  -0.000000   0.000000   0.000000
     2  C   -0.088656   0.014755  -0.000016  -0.000000   0.000000   0.000000
     3  C    0.432501  -0.002700   0.000034  -0.000000  -0.000000  -0.000000
     4  C   -0.062234   0.021275  -0.000904   0.000014   0.000016   0.000046
     5  C    0.021292  -0.062246  -0.027704  -0.000444   0.000046   0.000016
     6  C   -0.002689   0.432585   0.006311  -0.000001  -0.000000  -0.000000
     7  C   -0.000552  -0.029563  -0.060741   0.015256  -0.001344  -0.000588
     8  C    0.000014   0.005589   0.429025  -0.078709   0.013582   0.000048
     9  C   -0.000001   0.000208  -0.090204   0.430771  -0.078036  -0.000235
    10  C    0.000001  -0.000022   0.013820  -0.074769   0.423623  -0.017574
    11  C    0.000036   0.000037  -0.001948   0.015270  -0.071826  -0.071841
    12  C   -0.000022   0.000001   0.000026  -0.000328  -0.017577   0.423719
    13  C    0.000205  -0.000001   0.000002   0.000008  -0.000234  -0.078072
    14  C    0.005595   0.000014   0.000011  -0.000001   0.000048   0.013570
    15  C   -0.029547  -0.000551  -0.000544   0.000043  -0.000589  -0.001351
    16  C   -0.000963  -0.000962   0.023473  -0.001764   0.020130   0.020135
    17  H   -0.000255  -0.011256   0.000004   0.000000  -0.000000  -0.000000
    18  H   -0.011259  -0.000255  -0.000000  -0.000000  -0.000000  -0.000000
    19  H    0.691173   0.000027   0.000001   0.000000  -0.000000  -0.000000
    20  H    0.000027   0.691170   0.000757   0.000004  -0.000000  -0.000000
    21  H    0.000001   0.000757   0.685160  -0.011164  -0.000240  -0.000001
    22  H    0.000000   0.000004  -0.011164   0.662831  -0.011778  -0.000006
    23  H   -0.000000  -0.000000  -0.000240  -0.011778   0.676091   0.007053
    24  H   -0.000000  -0.000000  -0.000001  -0.000006   0.007053   0.676032
    25  H    0.000004   0.000000   0.000000  -0.000000  -0.000006  -0.011777
    26  H    0.000746   0.000001  -0.000001   0.000000  -0.000001  -0.000239
              25         26
     1  C   -0.000000  -0.000016
     2  C   -0.000000   0.000122
     3  C   -0.000001   0.006251
     4  C   -0.000444  -0.027630
     5  C    0.000014  -0.000901
     6  C   -0.000000   0.000034
     7  C    0.000043  -0.000546
     8  C   -0.000001   0.000011
     9  C    0.000008   0.000002
    10  C   -0.000330   0.000026
    11  C    0.015270  -0.001947
    12  C   -0.074758   0.013820
    13  C    0.430644  -0.090148
    14  C   -0.078615   0.429051
    15  C    0.015234  -0.060755
    16  C   -0.001752   0.023444
    17  H   -0.000000  -0.000000
    18  H    0.000000   0.000004
    19  H    0.000004   0.000746
    20  H    0.000000   0.000001
    21  H    0.000000  -0.000001
    22  H   -0.000000   0.000000
    23  H   -0.000006  -0.000001
    24  H   -0.011777  -0.000239
    25  H    0.662821  -0.011163
    26  H   -0.011163   0.685105
 Mulliken charges:
               1
     1  C   -0.038704
     2  C   -0.038537
     3  C   -0.160219
     4  C    0.100914
     5  C    0.100473
     6  C   -0.160169
     7  C    0.141412
     8  C   -0.178522
     9  C   -0.024508
    10  C   -0.155466
    11  C    0.225753
    12  C   -0.155277
    13  C   -0.024700
    14  C   -0.178329
    15  C    0.141200
    16  C   -0.017295
    17  H    0.050581
    18  H    0.050609
    19  H    0.029844
    20  H    0.029808
    21  H    0.034720
    22  H    0.054767
    23  H    0.041042
    24  H    0.041066
    25  H    0.054808
    26  H    0.034731
 Sum of Mulliken charges =  -0.00000
 Mulliken charges with hydrogens summed into heavy atoms:
               1
     1  C    0.011877
     2  C    0.012072
     3  C   -0.130375
     4  C    0.100914
     5  C    0.100473
     6  C   -0.130361
     7  C    0.141412
     8  C   -0.143802
     9  C    0.030259
    10  C   -0.114424
    11  C    0.225753
    12  C   -0.114211
    13  C    0.030108
    14  C   -0.143598
    15  C    0.141200
    16  C   -0.017295
 Electronic spatial extent (au):  <R**2>=           3148.7948
 Charge=              0.0000 electrons
 Dipole moment (field-independent basis, Debye):
    X=             -0.3969    Y=              0.0011    Z=              0.1002  Tot=              0.4093
 Quadrupole moment (field-independent basis, Debye-Ang):
   XX=            -81.7006   YY=            -80.0251   ZZ=            -97.8338
   XY=              0.0092   XZ=              0.0004   YZ=             -0.0299
 Traceless Quadrupole moment (field-independent basis, Debye-Ang):
   XX=              4.8192   YY=              6.4947   ZZ=            -11.3140
   XY=              0.0092   XZ=              0.0004   YZ=             -0.0299
 Octapole moment (field-independent basis, Debye-Ang**2):
  XXX=             -4.1581  YYY=              0.0053  ZZZ=              0.0953  XYY=             -0.4959
  XXY=              0.0346  XXZ=              2.1330  XZZ=             -0.3926  YZZ=             -0.0026
  YYZ=              0.5622  XYZ=             -0.3368
 Hexadecapole moment (field-independent basis, Debye-Ang**3):
 XXXX=          -2628.9784 YYYY=          -1325.6467 ZZZZ=           -108.3202 XXXY=              0.1480
 XXXZ=              2.1291 YYYX=              0.0555 YYYZ=              0.4232 ZZZX=              0.0226
 ZZZY=             -0.0327 XXYY=           -660.5296 XXZZ=           -545.0331 YYZZ=           -285.1123
 XXYZ=             -1.0341 YYXZ=             -0.8706 ZZXY=             -0.0211
 N-N= 9.593377502295D+02 E-N=-3.342473587786D+03  KE= 6.091007454890D+02
   1 Symmetry operations used in ECPInt.
 ECPInt:  NShTT=    6786 NPrTT=   27266 LenC2=    6581 LenP2D=   19047.
 LDataN:  DoStor=T MaxTD1= 5 Len=  102
 Calling FoFJK, ICntrl=      2127 FMM=F ISym2X=0 I1Cent= 0 IOpClX= 0 NMat=1 NMatS=1 NMatT=0.
 ***** Axes restored to original set *****
 -------------------------------------------------------------------
 Center     Atomic                   Forces (Hartrees/Bohr)
 Number     Number              X              Y              Z
 -------------------------------------------------------------------
      1        6           0.002028178   -0.008036071    0.000188109
      2        6           0.002107394    0.008062440   -0.000252536
      3        6           0.005717829    0.004823541    0.000128242
      4        6           0.001478156    0.002908175   -0.000150844
      5        6           0.000916900   -0.002701298   -0.000080664
      6        6           0.005941526   -0.005100629    0.000428743
      7        6           0.005735097    0.033039043    0.000375959
      8        6           0.005016336   -0.003218868   -0.000207335
      9        6          -0.018162700   -0.018354346    0.000264317
     10        6           0.005740618    0.025352569    0.000253746
     11        6          -0.004433166    0.000288783    0.000214155
     12        6           0.005609034   -0.025330059   -0.000222764
     13        6          -0.017899169    0.018026247    0.000359598
     14        6           0.004914518    0.003471881    0.000218588
     15        6           0.005201166   -0.032933649    0.000252380
     16        6          -0.008808997   -0.000412134   -0.000852267
     17        1           0.004061685    0.001665244   -0.000077578
     18        1           0.004023453   -0.001691180   -0.000219616
     19        1           0.000059232   -0.006800457   -0.000134189
     20        1           0.000016439    0.006904171    0.000029883
     21        1           0.002805829    0.005691392   -0.000265440
     22        1          -0.002213473    0.002931978   -0.000167995
     23        1          -0.005242333    0.000437976    0.000089034
     24        1          -0.005204496   -0.000446896   -0.000134718
     25        1          -0.002205910   -0.002881371   -0.000149264
     26        1           0.002796852   -0.005696483    0.000112457
 -------------------------------------------------------------------
 Cartesian Forces:  Max     0.033039043 RMS     0.008500973

 GradGradGradGradGradGradGradGradGradGradGradGradGradGradGradGradGradGrad
 Berny optimization.
 FormGI is forming the generalized inverse of G from B-inverse, IUseBI=4.
 Internal  Forces:  Max     0.023717386 RMS     0.005435510
 Search for a local minimum.
 Step number   1 out of a maximum of  156
 All quantities printed in internal units (Hartrees-Bohrs-Radians)
 Mixed Optimization -- RFO/linear search
 Second derivative matrix not updated -- first step.
 ITU=  0
     Eigenvalues ---    0.01718   0.01724   0.01881   0.01946   0.01947
     Eigenvalues ---    0.01950   0.01962   0.01970   0.01971   0.01975
     Eigenvalues ---    0.01997   0.02027   0.02040   0.02062   0.02075
     Eigenvalues ---    0.02101   0.02117   0.02154   0.02169   0.02217
     Eigenvalues ---    0.02223   0.02235   0.02257   0.15998   0.15999
     Eigenvalues ---    0.15999   0.15999   0.15999   0.15999   0.16000
     Eigenvalues ---    0.16000   0.16000   0.16000   0.22000   0.22064
     Eigenvalues ---    0.22223   0.22607   0.23387   0.23754   0.24504
     Eigenvalues ---    0.24894   0.24964   0.24979   0.34253   0.34778
     Eigenvalues ---    0.34968   0.34978   0.35049   0.35054   0.35185
     Eigenvalues ---    0.35191   0.35392   0.35394   0.35521   0.35542
     Eigenvalues ---    0.37585   0.38767   0.40805   0.41161   0.42481
     Eigenvalues ---    0.42719   0.42987   0.44056   0.44148   0.44918
     Eigenvalues ---    0.45506   0.45732   0.45805   0.47637   0.47712
     Eigenvalues ---    0.47742   0.48220
 RFO step:  Lambda=-1.11782102D-02 EMin= 1.71818778D-02
 Linear search not attempted -- first point.
 Iteration  1 RMS(Cart)=  0.03558671 RMS(Int)=  0.00021035
 Iteration  2 RMS(Cart)=  0.00030967 RMS(Int)=  0.00007556
 Iteration  3 RMS(Cart)=  0.00000006 RMS(Int)=  0.00007556
 Variable       Old X    -DE/DX   Delta X   Delta X   Delta X     New X
                                 (Linear)    (Quad)   (Total)
    R1        2.66180  -0.00603   0.00000  -0.01452  -0.01458   2.64723
    R2        2.64289   0.00541   0.00000   0.01092   0.01089   2.65378
    R3        2.05588   0.00435   0.00000   0.01204   0.01204   2.06792
    R4        2.64280   0.00539   0.00000   0.01086   0.01084   2.65363
    R5        2.05596   0.00432   0.00000   0.01195   0.01195   2.06791
    R6        2.61235   0.01100   0.00000   0.02266   0.02269   2.63504
    R7        2.04837   0.00680   0.00000   0.01855   0.01855   2.06692
    R8        2.69179   0.01122   0.00000   0.02285   0.02285   2.71464
    R9        2.75203   0.01633   0.00000   0.04086   0.04083   2.79286
   R10        2.61198   0.01110   0.00000   0.02287   0.02289   2.63487
   R11        2.75261   0.01617   0.00000   0.04052   0.04051   2.79312
   R12        2.04804   0.00690   0.00000   0.01883   0.01883   2.06687
   R13        2.61412   0.00375   0.00000   0.00824   0.00830   2.62242
   R14        2.62178   0.02372   0.00000   0.05554   0.05565   2.67743
   R15        2.65804   0.01529   0.00000   0.03019   0.03019   2.68823
   R16        2.05044   0.00630   0.00000   0.01726   0.01726   2.06769
   R17        2.66866  -0.01393   0.00000  -0.03516  -0.03522   2.63345
   R18        2.05711   0.00361   0.00000   0.01000   0.01000   2.06711
   R19        2.66293   0.01308   0.00000   0.02814   0.02808   2.69101
   R20        2.05366   0.00526   0.00000   0.01449   0.01449   2.06815
   R21        2.66252   0.01325   0.00000   0.02855   0.02849   2.69101
   R22        2.63186   0.01347   0.00000   0.03454   0.03455   2.66641
   R23        2.66804  -0.01376   0.00000  -0.03468  -0.03474   2.63330
   R24        2.05375   0.00522   0.00000   0.01437   0.01437   2.06812
   R25        2.65862   0.01507   0.00000   0.02974   0.02974   2.68836
   R26        2.05727   0.00357   0.00000   0.00988   0.00988   2.06715
   R27        2.61443   0.00358   0.00000   0.00786   0.00791   2.62234
   R28        2.05040   0.00630   0.00000   0.01726   0.01726   2.06766
   R29        2.62290   0.02333   0.00000   0.05482   0.05492   2.67781
    A1        2.11344   0.00017   0.00000  -0.00417  -0.00426   2.10918
    A2        2.08337  -0.00063   0.00000  -0.00110  -0.00107   2.08230
    A3        2.08634   0.00047   0.00000   0.00533   0.00536   2.09170
    A4        2.11362   0.00015   0.00000  -0.00430  -0.00438   2.10924
    A5        2.08308  -0.00059   0.00000  -0.00085  -0.00081   2.08227
    A6        2.08647   0.00044   0.00000   0.00516   0.00520   2.09167
    A7        2.05599   0.00481   0.00000   0.01950   0.01947   2.07547
    A8        2.10760  -0.00242   0.00000  -0.00979  -0.00981   2.09779
    A9        2.11950  -0.00238   0.00000  -0.00956  -0.00958   2.10992
   A10        2.11314  -0.00487   0.00000  -0.01485  -0.01477   2.09837
   A11        2.30125   0.00037   0.00000   0.00215   0.00210   2.30335
   A12        1.86845   0.00451   0.00000   0.01292   0.01286   1.88130
   A13        2.11465  -0.00513   0.00000  -0.01589  -0.01583   2.09882
   A14        1.86821   0.00455   0.00000   0.01309   0.01303   1.88124
   A15        2.30010   0.00059   0.00000   0.00300   0.00295   2.30306
   A16        2.05540   0.00489   0.00000   0.01989   0.01987   2.07528
   A17        2.10760  -0.00241   0.00000  -0.00972  -0.00974   2.09786
   A18        2.12014  -0.00247   0.00000  -0.01007  -0.01008   2.11005
   A19        2.32324   0.01169   0.00000   0.03386   0.03372   2.35696
   A20        1.88104  -0.00653   0.00000  -0.02115  -0.02115   1.85989
   A21        2.07861  -0.00515   0.00000  -0.01246  -0.01237   2.06624
   A22        2.06798   0.00074   0.00000   0.00267   0.00275   2.07073
   A23        2.11438   0.00037   0.00000   0.00302   0.00297   2.11735
   A24        2.10078  -0.00111   0.00000  -0.00562  -0.00568   2.09510
   A25        2.11964   0.00637   0.00000   0.01779   0.01776   2.13740
   A26        2.08313  -0.00252   0.00000  -0.00500  -0.00499   2.07814
   A27        2.08039  -0.00385   0.00000  -0.01275  -0.01274   2.06765
   A28        2.09896   0.00081   0.00000  -0.00120  -0.00130   2.09767
   A29        2.08668  -0.00045   0.00000   0.00038   0.00042   2.08710
   A30        2.09752  -0.00037   0.00000   0.00085   0.00090   2.09842
   A31        2.23745   0.00165   0.00000  -0.00238  -0.00236   2.23509
   A32        2.02250  -0.00074   0.00000   0.00148   0.00146   2.02396
   A33        2.02317  -0.00091   0.00000   0.00097   0.00095   2.02412
   A34        2.09853   0.00084   0.00000  -0.00089  -0.00098   2.09755
   A35        2.09751  -0.00036   0.00000   0.00083   0.00088   2.09839
   A36        2.08712  -0.00049   0.00000   0.00007   0.00012   2.08724
   A37        2.12026   0.00623   0.00000   0.01729   0.01724   2.13750
   A38        2.08035  -0.00379   0.00000  -0.01256  -0.01254   2.06781
   A39        2.08255  -0.00244   0.00000  -0.00470  -0.00468   2.07787
   A40        2.06772   0.00084   0.00000   0.00300   0.00307   2.07079
   A41        2.10084  -0.00116   0.00000  -0.00581  -0.00586   2.09498
   A42        2.11461   0.00032   0.00000   0.00286   0.00281   2.11741
   A43        2.32393   0.01155   0.00000   0.03337   0.03325   2.35718
   A44        1.88081  -0.00647   0.00000  -0.02093  -0.02095   1.85986
   A45        2.07832  -0.00507   0.00000  -0.01229  -0.01219   2.06613
   A46        2.17865  -0.00203   0.00000  -0.00827  -0.00829   2.17037
   A47        1.92616   0.00396   0.00000   0.01628   0.01633   1.94248
   A48        2.17831  -0.00193   0.00000  -0.00801  -0.00804   2.17027
    D1        0.00889  -0.00016   0.00000  -0.00614  -0.00618   0.00271
    D2       -3.12623  -0.00028   0.00000  -0.00935  -0.00934  -3.13557
    D3        3.14126   0.00005   0.00000   0.00115   0.00112  -3.14080
    D4        0.00614  -0.00008   0.00000  -0.00205  -0.00203   0.00411
    D5        0.00302  -0.00013   0.00000  -0.00352  -0.00353  -0.00051
    D6        3.13386   0.00019   0.00000   0.00730   0.00735   3.14122
    D7       -3.12934  -0.00034   0.00000  -0.01080  -0.01084  -3.14017
    D8        0.00151  -0.00002   0.00000   0.00002   0.00005   0.00155
    D9       -0.00858   0.00028   0.00000   0.00839   0.00841  -0.00017
   D10       -3.13580  -0.00016   0.00000  -0.00357  -0.00349  -3.13929
   D11        3.12653   0.00040   0.00000   0.01157   0.01156   3.13809
   D12       -0.00069  -0.00004   0.00000  -0.00039  -0.00034  -0.00103
   D13       -0.00320  -0.00013   0.00000  -0.00134  -0.00122  -0.00442
   D14       -3.11259  -0.00046   0.00000  -0.01175  -0.01162  -3.12421
   D15        3.12391   0.00032   0.00000   0.01071   0.01076   3.13468
   D16        0.01453  -0.00001   0.00000   0.00030   0.00037   0.01489
   D17        0.01533  -0.00026   0.00000  -0.00867  -0.00868   0.00665
   D18       -3.10608  -0.00048   0.00000  -0.01763  -0.01771  -3.12379
   D19        3.13183  -0.00004   0.00000  -0.00062  -0.00062   3.13122
   D20        0.01042  -0.00025   0.00000  -0.00957  -0.00964   0.00078
   D21       -0.02540   0.00039   0.00000   0.01235   0.01223  -0.01317
   D22        3.09835   0.00068   0.00000   0.02245   0.02234   3.12070
   D23       -3.13814   0.00022   0.00000   0.00340   0.00317  -3.13498
   D24       -0.01439   0.00051   0.00000   0.01350   0.01328  -0.00111
   D25       -0.01481   0.00033   0.00000   0.01067   0.01072  -0.00409
   D26        3.13761   0.00000   0.00000  -0.00024  -0.00024   3.13737
   D27        3.10090   0.00063   0.00000   0.02218   0.02232   3.12322
   D28       -0.02986   0.00030   0.00000   0.01127   0.01135  -0.01851
   D29        3.11153   0.00023   0.00000   0.01381   0.01404   3.12557
   D30       -0.00284   0.00001   0.00000   0.00262   0.00268  -0.00016
   D31       -0.00690   0.00006   0.00000   0.00383   0.00384  -0.00306
   D32       -3.12127  -0.00016   0.00000  -0.00737  -0.00752  -3.12879
   D33       -3.11748  -0.00014   0.00000  -0.00934  -0.00957  -3.12704
   D34        0.01421   0.00006   0.00000  -0.00158  -0.00171   0.01250
   D35       -0.00555   0.00013   0.00000   0.00287   0.00282  -0.00273
   D36        3.12614   0.00032   0.00000   0.01063   0.01067   3.13681
   D37        3.12332   0.00033   0.00000   0.00628   0.00613   3.12945
   D38       -0.00640   0.00030   0.00000   0.00594   0.00583  -0.00056
   D39        0.00447  -0.00017   0.00000  -0.00395  -0.00387   0.00060
   D40       -3.12525  -0.00020   0.00000  -0.00429  -0.00417  -3.12942
   D41        0.00188   0.00001   0.00000   0.00014   0.00014   0.00203
   D42        3.13542   0.00019   0.00000   0.00623   0.00626  -3.14151
   D43       -3.12989  -0.00019   0.00000  -0.00760  -0.00766  -3.13754
   D44        0.00365  -0.00002   0.00000  -0.00152  -0.00154   0.00211
   D45        0.00325  -0.00009   0.00000  -0.00231  -0.00228   0.00097
   D46        3.13722   0.00011   0.00000   0.00331   0.00328   3.14050
   D47       -3.13030  -0.00027   0.00000  -0.00842  -0.00840  -3.13870
   D48        0.00367  -0.00006   0.00000  -0.00280  -0.00283   0.00084
   D49        3.12357   0.00033   0.00000   0.00835   0.00822   3.13179
   D50       -0.00437   0.00007   0.00000   0.00143   0.00138  -0.00299
   D51       -0.01036   0.00012   0.00000   0.00269   0.00262  -0.00774
   D52       -3.13830  -0.00014   0.00000  -0.00422  -0.00421   3.14067
   D53       -3.13399  -0.00008   0.00000  -0.00036  -0.00021  -3.13420
   D54        0.00101   0.00005   0.00000   0.00241   0.00247   0.00348
   D55       -0.00605   0.00018   0.00000   0.00656   0.00663   0.00058
   D56        3.12895   0.00031   0.00000   0.00933   0.00931   3.13825
   D57        0.00060   0.00005   0.00000   0.00168   0.00168   0.00228
   D58        3.12864   0.00013   0.00000   0.00223   0.00217   3.13081
   D59       -3.12906  -0.00019   0.00000  -0.00433  -0.00428  -3.13334
   D60       -0.00102  -0.00012   0.00000  -0.00379  -0.00379  -0.00481
   D61        0.00445  -0.00004   0.00000  -0.00247  -0.00252   0.00192
   D62        3.13846   0.00012   0.00000   0.00239   0.00230   3.14076
   D63       -3.13059  -0.00017   0.00000  -0.00522  -0.00518  -3.13578
   D64        0.00342  -0.00001   0.00000  -0.00036  -0.00036   0.00306
   D65        0.00445  -0.00012   0.00000  -0.00475  -0.00483  -0.00038
   D66        3.13901   0.00010   0.00000   0.00335   0.00331  -3.14086
   D67       -3.12955  -0.00027   0.00000  -0.00958  -0.00965  -3.13920
   D68        0.00501  -0.00005   0.00000  -0.00148  -0.00151   0.00351
   D69        3.11093   0.00055   0.00000   0.01862   0.01868   3.12961
   D70       -0.01122   0.00022   0.00000   0.00761   0.00766  -0.00356
   D71       -0.02357   0.00033   0.00000   0.01049   0.01046  -0.01311
   D72        3.13746   0.00000   0.00000  -0.00052  -0.00056   3.13690
   D73        0.01294  -0.00052   0.00000  -0.01213  -0.01190   0.00104
   D74       -3.11679  -0.00055   0.00000  -0.01247  -0.01219  -3.12898
   D75        3.13964  -0.00008   0.00000  -0.00314  -0.00321   3.13643
   D76        0.00991  -0.00011   0.00000  -0.00348  -0.00350   0.00641
         Item               Value     Threshold  Converged?
 Maximum Force            0.023717     0.000450     NO 
 RMS     Force            0.005436     0.000300     NO 
 Maximum Displacement     0.108174     0.001800     NO 
 RMS     Displacement     0.035423     0.001200     NO 
 Predicted change in Energy=-5.768339D-03
 GradGradGradGradGradGradGradGradGradGradGradGradGradGradGradGradGradGrad

                          Input orientation:                          
 ---------------------------------------------------------------------
 Center     Atomic      Atomic             Coordinates (Angstroms)
 Number     Number       Type             X           Y           Z
 ---------------------------------------------------------------------
      1          6           0        3.716971    0.698234    0.023587
      2          6           0        3.715749   -0.702601    0.030366
      3          6           0        2.509680   -1.421717    0.017438
      4          6           0        1.305671   -0.718627   -0.002147
      5          6           0        1.306998    0.717895   -0.003392
      6          6           0        2.512011    1.419282    0.006961
      7          6           0       -0.099982    1.170716   -0.000893
      8          6           0       -0.734397    2.404831    0.015051
      9          6           0       -2.156425    2.440434    0.029672
     10          6           0       -2.933665    1.283755    0.030951
     11          6           0       -2.311420    0.002937    0.018520
     12          6           0       -2.936101   -1.276715    0.028732
     13          6           0       -2.161002   -2.434722    0.022546
     14          6           0       -0.738838   -2.401778    0.008407
     15          6           0       -0.101985   -1.168891    0.000040
     16          6           0       -0.900521    0.001722    0.001550
     17          1           0        4.671597    1.233096    0.033230
     18          1           0        4.669393   -1.238961    0.049108
     19          1           0        2.521214   -2.515396    0.025076
     20          1           0        2.525348    2.512932    0.002161
     21          1           0       -0.163046    3.337982    0.018419
     22          1           0       -2.663690    3.409491    0.042202
     23          1           0       -4.024906    1.366109    0.043521
     24          1           0       -4.027432   -1.356983    0.045187
     25          1           0       -2.669865   -3.403003    0.031491
     26          1           0       -0.169438   -3.336091    0.003275
 ---------------------------------------------------------------------
                    Distance matrix (angstroms):
                    1          2          3          4          5
     1  C    0.000000
     2  C    1.400852   0.000000
     3  C    2.439628   1.404243   0.000000
     4  C    2.796878   2.410350   1.394402   0.000000
     5  C    2.410205   2.796610   2.454550   1.436523   0.000000
     6  C    1.404320   2.439655   2.841019   2.454790   1.394313
     7  C    3.846163   4.250893   3.678502   2.354884   1.478054
     8  C    4.767308   5.427722   5.016624   3.730706   2.648280
     9  C    6.126344   6.660413   6.057136   4.686875   3.868273
    10  C    6.676365   6.939763   6.078632   4.688561   4.278387
    11  C    6.068358   6.068335   5.027191   3.688419   3.688441
    12  C    6.940016   6.676580   5.447723   4.278440   4.688645
    13  C    6.660780   6.126704   4.779275   3.868257   4.686863
    14  C    5.428125   4.767706   3.393150   2.648230   3.730675
    15  C    4.251016   3.846223   2.623931   1.477916   2.354826
    16  C    4.669780   4.669780   3.695389   2.320818   2.320790
    17  H    1.094294   2.158836   3.423765   3.891006   3.404012
    18  H    2.158815   1.094290   2.167664   3.404115   3.890725
    19  H    3.428886   2.170983   1.093767   2.169485   3.453882
    20  H    2.171072   3.428922   3.934710   3.454071   2.169462
    21  H    4.692849   5.601027   5.458773   4.314352   3.004391
    22  H    6.932827   7.589906   7.078484   5.727055   4.797200
    23  H    7.770657   8.012332   7.104468   5.723920   5.371367
    24  H    8.012500   7.770797   6.537491   5.371380   5.723951
    25  H    7.590249   6.933126   5.545572   4.797071   5.726993
    26  H    5.601818   4.693685   3.292825   3.004512   4.314477
                    6          7          8          9         10
     6  C    0.000000
     7  C    2.623805   0.000000
     8  C    3.392719   1.387724   0.000000
     9  C    4.778867   2.417039   1.422549   0.000000
    10  C    5.447415   2.836116   2.468572   1.393560   0.000000
    11  C    5.027092   2.500909   2.873345   2.442445   1.424021
    12  C    6.078717   3.746247   4.289694   3.798038   2.560472
    13  C    6.057280   4.153016   5.045447   4.875164   3.797914
    14  C    5.016823   3.629178   4.806616   5.045495   4.289630
    15  C    3.678541   2.339608   3.629279   4.153172   3.746310
    16  C    3.695251   1.416833   2.408883   2.743247   2.403778
    17  H    2.167755   4.772108   5.531551   6.933943   7.605431
    18  H    3.423788   5.343780   6.517617   7.754362   8.010675
    19  H    3.934731   4.523137   5.899809   6.814733   6.647503
    20  H    1.093742   2.948543   3.261562   4.682415   5.595760
    21  H    3.292032   2.168270   1.094177   2.186156   3.449107
    22  H    5.545273   3.403905   2.175373   1.093868   2.142842
    23  H    6.537236   3.930036   3.450682   2.155362   1.094416
    24  H    7.104465   4.670787   4.999623   4.233353   2.858325
    25  H    7.078621   5.246356   6.121866   5.865951   4.694175
    26  H    5.459282   4.507344   5.768666   6.108769   5.383743
                   11         12         13         14         15
    11  C    0.000000
    12  C    1.424023   0.000000
    13  C    2.442299   1.393484   0.000000
    14  C    2.873286   2.468633   1.422616   0.000000
    15  C    2.501026   2.836312   2.417103   1.387682   0.000000
    16  C    1.411002   2.403898   2.743267   2.408941   1.417038
    17  H    7.090559   8.011007   7.754831   6.518107   5.343942
    18  H    7.090487   7.605616   6.934324   5.531976   4.772145
    19  H    5.449441   5.596127   4.682912   3.262074   2.948707
    20  H    5.449281   6.647523   6.814805   5.899942   4.523130
    21  H    3.967119   5.383806   6.108679   5.768577   4.507325
    22  H    3.424801   4.694137   5.865826   6.121850   5.246494
    23  H    2.189725   2.858362   4.233308   4.999645   4.670913
    24  H    2.189701   1.094402   2.155364   3.450768   3.930210
    25  H    3.424774   2.142892   1.093887   2.175282   3.403858
    26  H    3.967043   3.449073   2.186130   1.094159   2.168252
                   16         17         18         19         20
    16  C    0.000000
    17  H    5.706643   0.000000
    18  H    5.706619   2.472109   0.000000
    19  H    4.247906   4.321505   2.498907   0.000000
    20  H    4.247676   2.499066   4.321555   5.028383   0.000000
    21  H    3.416839   5.273001   6.655961   6.439514   2.812194
    22  H    3.837097   7.651353   8.682296   7.873234   5.266073
    23  H    3.409560   8.697526   9.076192   7.610395   6.650018
    24  H    3.409627   9.076439   8.697627   6.650346   7.610323
    25  H    3.837137   8.682768   7.651673   5.266421   7.873333
    26  H    3.416940   6.656875   5.273931   2.813117   6.439949
                   21         22         23         24         25
    21  H    0.000000
    22  H    2.501779   0.000000
    23  H    4.336228   2.455264   0.000000
    24  H    6.080862   4.957729   2.723093   0.000000
    25  H    7.192022   6.812505   4.957893   2.455478   0.000000
    26  H    6.674094   7.192058   6.080867   4.336213   2.501481
                   26
    26  H    0.000000
 Stoichiometry    C16H10
 Framework group  C1[X(C16H10)]
 Deg. of freedom    72
 Full point group                 C1      NOp   1
 Largest Abelian subgroup         C1      NOp   1
 Largest concise Abelian subgroup C1      NOp   1
                         Standard orientation:                         
 ---------------------------------------------------------------------
 Center     Atomic      Atomic             Coordinates (Angstroms)
 Number     Number       Type             X           Y           Z
 ---------------------------------------------------------------------
      1          6           0        3.710484    0.700359    0.012165
      2          6           0        3.710402   -0.700474    0.019422
      3          6           0        2.504939   -1.420584    0.005293
      4          6           0        1.300379   -0.718489   -0.015980
      5          6           0        1.300529    0.718033   -0.017716
      6          6           0        2.504954    1.420412   -0.006156
      7          6           0       -0.106823    1.169701   -0.017063
      8          6           0       -0.742269    2.403301   -0.002304
      9          6           0       -2.164342    2.437743    0.010596
     10          6           0       -2.940634    1.280426    0.011338
     11          6           0       -2.317325    0.000116    0.000094
     12          6           0       -2.940969   -1.280045    0.009994
     13          6           0       -2.164913   -2.437418    0.005136
     14          6           0       -0.742760   -2.403312   -0.007305
     15          6           0       -0.106909   -1.169906   -0.015330
     16          6           0       -0.906406    0.000052   -0.015181
     17          1           0        4.664658    1.236007    0.022770
     18          1           0        4.664462   -1.236045    0.039495
     19          1           0        2.517361   -2.514251    0.013319
     20          1           0        2.517399    2.514072   -0.011316
     21          1           0       -0.171688    3.336922    0.001430
     22          1           0       -2.672416    3.406388    0.022184
     23          1           0       -4.031957    1.361890    0.022569
     24          1           0       -4.032252   -1.361202    0.025165
     25          1           0       -2.672993   -3.406112    0.013802
     26          1           0       -0.172589   -3.337160   -0.011433
 ---------------------------------------------------------------------
 Rotational constants (GHZ):           1.0284303           0.4890884           0.3314718
 Standard basis: def2SVPP (5D, 7F)
 There are   260 symmetry adapted cartesian basis functions of A   symmetry.
 There are   244 symmetry adapted basis functions of A   symmetry.
   244 basis functions,   440 primitive gaussians,   260 cartesian basis functions
    53 alpha electrons       53 beta electrons
       nuclear repulsion energy       950.7590411393 Hartrees.
 NAtoms=   26 NActive=   26 NUniq=   26 SFac= 1.00D+00 NAtFMM=   60 NAOKFM=F Big=F
 Integral buffers will be    131072 words long.
 Raffenetti 2 integral format.
 Two-electron integral symmetry is turned on.
 Nuclear repulsion after empirical dispersion term =      950.6966156829 Hartrees.
 One-electron integrals computed using PRISM.
   1 Symmetry operations used in ECPInt.
 ECPInt:  NShTT=    6786 NPrTT=   27266 LenC2=    6577 LenP2D=   18984.
 LDataN:  DoStor=T MaxTD1= 4 Len=   56
 NBasis=   244 RedAO= T EigKep=  2.14D-04  NBF=   244
 NBsUse=   244 1.00D-06 EigRej= -1.00D+00 NBFU=   244
 Initial guess from the checkpoint file:  "/home/software/g16/scr/Gau-307078.chk"
 B after Tr=    -0.000000    0.000000    0.000000
         Rot=    1.000000    0.000009    0.000002   -0.000146 Ang=   0.02 deg.
 ExpMin= 1.22D-01 ExpMax= 1.24D+03 ExpMxC= 1.86D+02 IAcc=3 IRadAn=         5 AccDes= 0.00D+00
 Harris functional with IExCor=  402 and IRadAn=       5 diagonalized for initial guess.
 HarFok:  IExCor=  402 AccDes= 0.00D+00 IRadAn=         5 IDoV= 1 UseB2=F ITyADJ=14
 ICtDFT=  3500011 ScaDFX=  1.000000  1.000000  1.000000  1.000000
 FoFCou: FMM=F IPFlag=           0 FMFlag=      100000 FMFlg1=           0
         NFxFlg=           0 DoJE=T BraDBF=F KetDBF=T FulRan=T
         wScrn=  0.000000 ICntrl=       500 IOpCl=  0 I1Cent=   200000004 NGrid=           0
         NMat0=    1 NMatS0=      1 NMatT0=    0 NMatD0=    1 NMtDS0=    0 NMtDT0=    0
 Petite list used in FoFCou.
 Requested convergence on RMS density matrix=1.00D-08 within 128 cycles.
 Requested convergence on MAX density matrix=1.00D-06.
 Requested convergence on             energy=1.00D-06.
 No special actions if energy rises.
 Integral accuracy reduced to 1.0D-05 until final iterations.
 Initial convergence to 1.0D-05 achieved.  Increase integral accuracy.
 SCF Done:  E(RB3LYP) =  -615.351496872     A.U. after   13 cycles
            NFock= 13  Conv=0.62D-08     -V/T= 2.0112
   1 Symmetry operations used in ECPInt.
 ECPInt:  NShTT=    6786 NPrTT=   27266 LenC2=    6577 LenP2D=   18984.
 LDataN:  DoStor=T MaxTD1= 5 Len=  102
 Calling FoFJK, ICntrl=      2127 FMM=F ISym2X=0 I1Cent= 0 IOpClX= 0 NMat=1 NMatS=1 NMatT=0.
 ***** Axes restored to original set *****
 -------------------------------------------------------------------
 Center     Atomic                   Forces (Hartrees/Bohr)
 Number     Number              X              Y              Z
 -------------------------------------------------------------------
      1        6          -0.000596833   -0.000486337   -0.000087117
      2        6          -0.000557541    0.000526251    0.000046329
      3        6          -0.000457069    0.001626608   -0.000364613
      4        6           0.000416420    0.003460852    0.000861073
      5        6           0.000226468   -0.003400859    0.000068812
      6        6          -0.000339643   -0.001706827   -0.000298898
      7        6           0.000274340    0.006480746    0.000331554
      8        6           0.002886587   -0.003551615   -0.000270532
      9        6          -0.003754231   -0.004063662   -0.000045343
     10        6           0.002034951    0.004690752   -0.000066878
     11        6           0.004089725    0.000032289   -0.000054819
     12        6           0.002036349   -0.004665867    0.000040952
     13        6          -0.003697339    0.003998091    0.000016279
     14        6           0.002860869    0.003544783   -0.000248387
     15        6           0.000131305   -0.006394229   -0.000290234
     16        6          -0.004420029   -0.000105651    0.000332656
     17        1          -0.000412595    0.000427277    0.000000883
     18        1          -0.000409089   -0.000429474   -0.000148720
     19        1          -0.000297568   -0.000139317   -0.000025375
     20        1          -0.000303918    0.000151562    0.000187708
     21        1          -0.000616689    0.000150960   -0.000026599
     22        1           0.000713267    0.000636788   -0.000037618
     23        1           0.000051801   -0.000705526    0.000036232
     24        1           0.000044111    0.000698243   -0.000129125
     25        1           0.000700001   -0.000619015   -0.000045925
     26        1          -0.000603650   -0.000156823    0.000217704
 -------------------------------------------------------------------
 Cartesian Forces:  Max     0.006480746 RMS     0.001994094

 GradGradGradGradGradGradGradGradGradGradGradGradGradGradGradGradGradGrad
 Berny optimization.
 Using GEDIIS/GDIIS optimizer.
 FormGI is forming the generalized inverse of G from B-inverse, IUseBI=4.
 Internal  Forces:  Max     0.003971288 RMS     0.000901698
 Search for a local minimum.
 Step number   2 out of a maximum of  156
 All quantities printed in internal units (Hartrees-Bohrs-Radians)
 Mixed Optimization -- En-DIIS/RFO-DIIS
[...]
 00003,0.00000005,-0.00001600,0.00000008,0.,0.00004724,0.00000007,-0.00
 000011,0.00000862,0.00000077,-0.00000118,0.00060968,0.00000036,0.00000
 025,-0.00015171,-0.00000574,-0.00000011,-0.00417283,-0.00030657,0.0001
 5579,0.02545727,-0.00433739,-0.00185806,0.00001280,0.00503556,-0.02804
 588,-0.00000320,-0.05941154,0.00328655,0.00002463,0.00605528,0.0279604
 7,-0.00000065,-0.00408694,0.00132649,0.00001343,-0.00107864,0.00006141
 ,0.00000077,0.00024733,0.00145138,0.00000005,-0.00037182,-0.00014045,0
 .00000013,-0.00001659,0.00005678,-0.00000008,-0.00004198,0.00004018,0.
 00000003,0.00002305,-0.00007099,0.00000009,0.00009691,-0.00000900,-0.0
 0000017,-0.00010159,-0.00026195,0.00000013,-0.00002361,0.00046819,0.00
 000005,0.00092422,-0.00076315,-0.00000572,0.00009814,0.00017762,0.0000
 0003,0.00005633,-0.00128326,0.00000008,0.00124858,0.00068786,-0.000006
 07,0.05593348,-0.00319101,0.00083326,0.00000333,0.00309351,-0.01153776
 ,-0.00000453,0.00171223,-0.33483899,-0.00002033,-0.00174740,-0.0118426
 4,0.00000105,0.00254546,0.00110933,-0.00000334,0.00023126,0.00073220,-
 0.00000020,-0.00025443,-0.00075796,0.00000024,0.00016374,0.00017754,-0
 .00000016,0.00006667,0.00001788,-0.00000007,0.00007697,-0.00009173,-0.
 00000009,-0.00013451,-0.00002070,0.00000015,-0.00003946,0.00004007,0.0
 0000005,0.00009280,0.00023129,-0.00000009,0.00048363,-0.00024968,-0.00
 000058,-0.00096857,0.00027540,0.00000139,0.00030570,-0.00010243,-0.000
 00037,0.00017185,-0.00062622,-0.00000025,-0.00014924,0.00090037,0.0000
 0048,-0.00257077,0.35552231,0.00001271,0.00000178,0.00679866,-0.000001
 27,0.00003157,0.00377259,0.00002454,-0.00002216,-0.03833914,-0.0000024
 9,-0.00003340,0.00400360,0.00001351,-0.00000193,0.00742842,0.00000078,
 0.,-0.00041477,-0.00000006,-0.00000174,0.00020900,0.00000015,0.0000001
 9,-0.00024834,-0.00000008,-0.00000006,-0.00008591,0.00000003,-0.000000
 05,-0.00002043,0.00000009,0.00000007,0.00010422,-0.00000017,0.00000002
 ,-0.00004980,0.00000015,0.00000032,0.00002506,0.00000005,-0.00000056,-
 0.00000771,-0.00000573,0.00000115,-0.00396689,0.00000003,-0.00000022,0
 .00011155,0.00000017,0.00000144,0.00019165,-0.00000612,-0.00000049,-0.
 00402600,-0.00003554,0.00002341,0.02541439,0.00507940,0.02801665,0.000
 00022,-0.00432849,0.00186713,0.00001302,-0.00107915,-0.00005822,0.0000
 0077,-0.00409374,-0.00131734,0.00001328,0.00600912,-0.02799186,-0.0000
 0406,-0.05942118,-0.00377095,0.00002421,0.00092726,0.00076201,-0.00000
 563,-0.00002528,-0.00046859,0.,-0.00010129,0.00026254,0.00000016,0.000
 09700,0.00000890,-0.00000017,0.00002341,0.00007091,0.00000010,-0.00004
 219,-0.00004027,0.00000002,-0.00001681,-0.00005671,-0.00000008,-0.0003
 7186,0.00014142,0.00000015,0.00024522,-0.00145315,-0.00000013,0.000097
 29,-0.00017797,0.,0.00124763,-0.00068847,-0.00000616,0.00005829,0.0012
 8206,0.00000023,0.00010840,-0.00001717,-0.00000160,0.05594345,-0.00312
 274,-0.01158159,0.00000267,0.00320008,0.00082437,-0.00000408,-0.000228
 08,0.00073271,0.00000034,-0.00253631,0.00111613,0.00000255,0.00171600,
 -0.01179649,-0.00000297,-0.00219662,-0.33482935,-0.00001580,0.00096742
 ,0.00027236,-0.00000086,-0.00048402,-0.00024800,0.00000055,-0.00009221
 ,0.00023099,0.00000012,0.00003936,0.00003999,-0.00000004,0.00013443,-0
 .00002106,-0.00000016,-0.00007705,-0.00009152,0.00000008,-0.00006661,0
 .00001809,0.00000008,-0.00016277,0.00017758,0.00000022,0.00025267,-0.0
 0075585,-0.00000035,-0.00030605,-0.00010158,0.00000034,0.00014863,0.00
 090132,0.00000013,-0.00017306,-0.00062818,0.00000015,0.00001679,-0.000
 11029,0.00000005,0.00309766,0.35551234,-0.00000171,-0.00003343,0.00377
 259,0.00001310,-0.00000253,0.00679866,0.00000076,0.00000014,-0.0004147
 7,0.00001320,0.00000114,0.00742842,-0.00000222,0.00003147,0.00400360,0
 .00002430,-0.00001398,-0.03833914,-0.00000561,-0.00000062,-0.00396689,
 0.,0.00000053,-0.00000771,0.00000014,-0.00000029,0.00002506,-0.0000001
 7,0.,-0.00004980,0.00000010,-0.00000009,0.00010422,0.00000002,0.000000
 04,-0.00002043,-0.00000008,0.00000007,-0.00008591,0.00000013,-0.000000
 14,-0.00024834,-0.00000003,0.00000162,0.00020900,0.,0.00000019,0.00011
 155,-0.00000610,0.00000110,-0.00402600,0.00000014,-0.00000154,0.000191
 65,-0.00000160,0.00000009,-0.00126895,-0.00003520,0.00001684,0.0254143
 9,-0.00011725,-0.00006856,0.00000019,0.00003887,-0.00003992,-0.0000000
 8,-0.00003321,-0.00006230,0.00000016,0.00017264,0.00000274,0.00000021,
 -0.00014750,-0.00063600,-0.00000510,0.00041953,0.00014687,-0.00000033,
 0.01341536,0.01208466,-0.00000924,-0.13229822,-0.12079664,0.00010028,-
 0.01084570,-0.02791639,0.00001499,-0.00489806,0.00197576,0.00001213,-0
 .00026712,0.00084427,-0.00000026,0.00010141,-0.00024102,-0.00000133,-0
 .00016548,0.00006409,0.00000050,-0.00000758,0.00020405,-0.00000071,0.0
 0065553,0.00035068,-0.00000069,-0.00118978,0.00270114,0.00001187,0.000
 02107,-0.00000174,-0.00000006,0.00000297,-0.00002569,0.00000004,0.0000
 1480,-0.00002329,0.00000002,-0.00035425,-0.00006478,0.00000066,0.13473
 159,0.00039475,0.00016389,-0.00000045,0.00004935,0.00017964,-0.0000000
 4,-0.00020405,0.00011220,0.00000024,0.00013794,-0.00017485,-0.00000019
 ,-0.00071239,0.00142030,0.00000119,0.00001763,-0.00075948,-0.00000008,
 -0.01738207,-0.01843368,0.00001871,-0.12249878,-0.26272346,0.00012819,
 0.00316120,0.00431473,-0.00000362,0.00073301,0.00134116,-0.00000110,0.
 00065686,0.00006667,-0.00000072,-0.00006251,0.00015220,0.00000015,0.00
 008978,-0.00000701,-0.00000012,0.00042506,-0.00033969,-0.00000047,-0.0
 0141256,-0.00069257,0.00000159,0.00427266,-0.00279189,-0.00000568,0.00
 002835,-0.00002046,-0.00000003,0.00001212,0.00003749,-0.00000001,-0.00
 001189,0.00000360,0.00000001,0.00048140,0.00031412,-0.00000055,0.13224
 239,0.27723689,0.00000022,0.00000009,0.00004875,-0.00000008,0.00000006
 ,-0.00002866,0.00000015,0.00000007,0.00011075,0.00000022,-0.00000004,0
 .00035407,-0.00000511,0.00000110,-0.00451671,-0.00000033,-0.00000023,0
 .00013127,-0.00001106,-0.00001545,0.00479917,0.00010017,0.00012622,-0.
 03935196,0.00001692,0.00003241,0.00357846,0.00001205,-0.00000255,0.005
 45566,-0.00000027,-0.00000094,-0.00053783,-0.00000132,0.00000035,-0.00
 103313,0.00000050,-0.00000009,0.00026278,-0.00000070,-0.00000022,-0.00
 063236,-0.00000080,-0.00000045,0.00003739,0.00001196,-0.00000386,0.008
 90055,-0.00000006,0.,-0.00003228,0.00000004,0.00000003,0.00003612,0.00
 000002,0.00000003,0.00003333,0.00000069,0.00000008,0.00021494,-0.00011
 874,-0.00013772,0.02524985,-0.00000556,-0.00002238,-0.00000003,-0.0000
 4114,0.00001417,0.00000004,0.00008944,0.00011978,-0.00000019,-0.000509
 93,0.00006633,0.00000040,0.00052786,0.00101309,-0.00000002,-0.00000978
 ,0.00011197,0.00000002,-0.00586281,-0.00090607,0.00001272,-0.00993297,
 0.02889625,0.00001693,-0.11624303,0.11326953,0.00009826,0.01129204,-0.
 01731006,-0.00000949,-0.00183450,-0.00307113,0.00001154,0.00070507,-0.
 00024889,-0.00000045,0.00005882,-0.00027406,-0.00000079,-0.00018096,-0
 .00009722,0.00000036,-0.00003165,0.00025503,-0.00000052,-0.00035747,-0
 .00094973,-0.00000028,-0.00003242,0.00000745,0.00000004,-0.00000892,0.
 00000510,0.00000002,-0.00004503,0.00003592,0.00000010,0.00000622,-0.00
 003663,0.00000003,0.00134105,-0.00046871,-0.00000521,0.12010217,-0.000
 00270,0.00003142,0.,-0.00000303,-0.00003073,0.,0.00004884,0.00002472,-
 0.00000005,-0.00002978,-0.00004457,0.00000004,-0.00026370,0.00017769,0
 .00000029,0.00006101,-0.00004945,-0.00000007,-0.00014640,0.00131086,-0
 .00000007,-0.00227699,0.00259425,0.00000261,0.11282234,-0.27839105,-0.
 00014570,0.01430566,-0.01913943,-0.00001802,-0.00403936,-0.00246982,0.
 00000402,0.00107548,-0.00030584,-0.00000129,-0.00015442,-0.00041097,0.
 00000019,-0.00018348,-0.00003883,0.00000020,0.00005914,0.00018350,-0.0
 0000003,-0.00070395,0.00046684,0.00000088,0.00001329,0.00000234,-0.000
 00002,0.00001118,-0.00000344,-0.00000001,-0.00000222,-0.00000603,0.,-0
 .00000582,0.00000862,0.,0.00038168,0.00072612,-0.00000020,-0.12082353,
 0.29430788,-0.00000003,0.00000003,-0.00002955,0.00000003,-0.00000002,-
 0.00001088,-0.00000019,-0.00000013,-0.00007764,0.00000039,-0.00000007,
 -0.00016817,-0.00000010,-0.00000119,0.00045641,0.00000001,-0.00000013,
 -0.00000169,0.00001276,0.00000081,0.00515334,0.00001500,-0.00003353,0.
 00312890,0.00009823,-0.00014622,-0.03753490,-0.00000753,0.00001863,0.0
 0403261,0.00001148,0.00000289,0.00828625,-0.00000037,0.00000025,0.0003
 3056,-0.00000078,0.00000033,-0.00060670,0.00000036,0.00000010,0.000136
 41,-0.00000053,-0.00000025,-0.00048997,-0.00000027,0.00000116,-0.00054
 886,0.00000004,0.,-0.00000053,0.00000002,0.,0.00000583,0.00000010,-0.0
 0000004,0.00004032,0.00000003,0.00000004,0.00003667,-0.00000516,0.0000
 0078,-0.00313170,-0.00011664,0.00015668,0.02594041,-0.00004051,0.00002
 918,0.00000001,-0.00005058,-0.00002731,0.00000001,0.00002001,-0.000073
 09,-0.00000039,-0.00018551,0.00024791,0.00000058,-0.00008075,-0.000024
 49,-0.00000096,0.00002363,0.00001065,0.00000005,0.00076559,-0.00010049
 ,-0.00000173,0.00048545,-0.00297433,0.00000829,-0.01273326,0.00401013,
 0.00001993,-0.33398635,0.01849301,0.00034598,-0.00998334,-0.00155801,0
 .00001545,0.00076856,-0.00125642,-0.00000431,-0.00006408,0.00029437,-0
 .00000003,0.00020669,0.00007556,-0.00000037,-0.00028902,-0.00073732,0.
 00000105,0.00059645,0.00298394,0.00000505,-0.00001402,-0.00000131,0.00
 000001,-0.00001826,-0.00000011,0.00000012,0.00000444,0.00001103,0.0000
 0001,0.00001734,-0.00000249,0.00000001,-0.00065112,0.00017420,0.000000
 88,0.00092745,-0.00017171,-0.00000701,0.35410904,0.00009387,-0.0000811
 2,-0.00000011,0.00008253,0.00008507,-0.00000009,-0.00005159,0.00012986
 ,0.00000009,0.00029563,-0.00041518,-0.00000039,0.00019848,0.00011124,-
 0.00000017,-0.00011443,-0.00002073,0.00000013,-0.00018394,-0.00088528,
 0.00000020,-0.00177544,-0.00386631,0.00000134,-0.02737838,0.00548654,0
 .00003182,0.02008246,-0.05979777,-0.00002472,0.02801764,0.00331323,-0.
 00003249,0.00056455,0.00184737,-0.00000036,-0.00040929,0.00009923,0.00
 000049,0.00022186,0.00022237,-0.00000024,0.00103224,0.00056895,-0.0000
 0120,0.00137845,-0.00522616,-0.00000222,0.00000029,-0.00000093,0.,0.00
 001337,0.00001097,-0.00000002,-0.00000941,0.00000143,0.00000001,0.0000
 3227,0.00001628,-0.00000004,-0.00123188,0.00007600,0.00000143,0.000458
 01,0.00117396,-0.00000014,-0.02037416,0.05744146,0.00000002,-0.0000000
 4,-0.00003119,0.00000002,0.00000004,-0.00003792,-0.00000039,0.00000011
 ,-0.00030933,0.00000059,-0.00000033,0.00030471,-0.00000095,0.00000009,
 -0.00091131,0.00000005,-0.00000002,0.00006922,-0.00000174,0.00000011,-
 0.00072416,0.00000836,0.00000273,0.00779253,0.00001799,-0.00000457,0.0
 0424559,0.00034608,-0.00002288,-0.03654015,0.00001728,0.00000180,0.003
 42605,-0.00000420,0.00000175,-0.00288590,-0.00000007,-0.00000033,-0.00
 010398,-0.00000037,-0.00000007,-0.00012070,0.00000116,0.00000085,0.000
 65890,0.00000495,-0.00000408,0.00479464,0.00000001,0.,-0.00000133,0.00
 000012,0.,0.00008604,0.00000001,-0.00000001,0.00001526,0.00000001,0.,0
 .00002827,0.00000079,-0.00000020,0.00009472,-0.00000697,0.00000059,-0.
 00510713,-0.00038297,0.00002564,0.02485753,-0.00005067,0.00002755,0.00
 000002,-0.00004073,-0.00002926,0.,0.00002381,-0.00001073,0.00000005,-0
 .00008106,0.00002483,-0.00000096,-0.00018646,-0.00024832,0.00000055,0.
 00002023,0.00007329,-0.00000038,-0.00028954,0.00073883,0.00000115,0.00
 020616,-0.00007553,-0.00000038,-0.00006388,-0.00029409,-0.00000006,0.0
 0076978,0.00125832,-0.00000416,-0.01002984,0.00158147,0.00001570,-0.33
 405334,-0.01801071,0.00034380,-0.01269210,-0.00397816,0.00001939,0.000
 49379,0.00296666,0.00000865,0.00076609,0.00009759,-0.00000172,0.000588
 76,-0.00299416,0.00000469,-0.00001828,0.00000016,0.00000012,-0.0000140
 2,0.00000133,0.00000001,0.00001728,0.00000249,0.00000001,0.00000444,-0
 .00001103,0.00000001,0.00001615,-0.00004426,0.00000004,-0.00000929,-0.
 00005513,0.00000019,0.00016524,-0.00087267,-0.00000002,0.35417979,-0.0
 0008229,0.00008516,0.00000010,-0.00009394,-0.00008090,0.00000011,0.000
 11435,-0.00002091,-0.00000014,-0.00019814,0.00011155,0.00000029,-0.000
 29603,-0.00041422,0.00000030,0.00005178,0.00012965,-0.00000003,-0.0010
 3073,0.00056946,0.00000119,-0.00022183,0.00022290,0.00000028,0.0004095
 7,0.00009903,-0.00000046,-0.00056265,0.00184615,0.00000095,-0.02799417
 ,0.00335972,0.00003245,-0.01960016,-0.05973078,0.00002129,0.02741035,0
 .00544539,-0.00003170,0.00176777,-0.00387465,-0.00000277,0.00018104,-0
 .00088577,-0.00000022,-0.00138868,-0.00521847,0.00000099,-0.00001332,0
 .00001099,0.00000001,-0.00000027,-0.00000093,0.,-0.00003227,0.00001633
 ,0.00000004,0.00000941,0.00000143,-0.00000001,0.00005443,-0.00003471,-
 0.00000007,0.00001596,0.00000229,-0.00000003,0.00087193,-0.00025801,-0
 .00000104,0.01985231,0.05737072,0.,-0.00000002,-0.00003792,0.,0.000000
 03,-0.00003119,0.00000006,0.,0.00006922,-0.00000097,0.00000003,-0.0009
 1131,0.00000055,0.00000024,0.00030471,-0.00000038,-0.00000006,-0.00030
 933,0.00000104,-0.00000086,0.00065890,-0.00000039,0.00000011,-0.000120
 70,-0.00000002,0.00000035,-0.00010398,-0.00000427,-0.00000117,-0.00288
 590,0.00001387,-0.00000184,0.00342605,0.00034370,0.00001944,-0.0365401
 4,0.00002133,0.00000469,0.00424559,0.00000857,-0.00000416,0.00779253,-
 0.00000172,-0.00000012,-0.00072416,0.00000479,0.00000285,0.00479464,0.
 00000012,0.,0.00008604,0.00000001,0.,-0.00000133,0.00000001,0.,0.00002
 827,0.00000001,0.00000001,0.00001526,0.00000005,0.00000005,0.00005362,
 0.00000019,0.00000005,0.00015458,0.00000008,0.00000098,0.00019146,-0.0
 0038056,-0.00002100,0.02485753,-0.00004116,-0.00001415,0.00000003,-0.0
 0000551,0.00002244,-0.00000003,-0.00001008,-0.00011204,0.,0.00052654,-
 0.00101371,-0.00000014,-0.00050999,-0.00006551,0.00000039,0.00008915,-
 0.00011989,-0.00000020,-0.00003220,-0.00025465,-0.00000055,-0.00018046
 ,0.00009747,0.00000037,0.00005958,0.00027323,-0.00000076,0.00070361,0.
 00024712,-0.00000042,-0.00182200,0.00306999,0.00001191,0.01129723,0.01
 725653,-0.00000735,-0.11664117,-0.11355402,0.00008468,-0.00997975,-0.0
 2887414,0.00001341,-0.00586094,0.00091868,0.00001283,-0.00035456,0.000
 95117,-0.00000017,-0.00000895,-0.00000509,0.00000002,-0.00003245,-0.00
 000739,0.00000004,0.00000630,0.00003664,0.00000004,-0.00004509,-0.0000
 3585,0.00000010,0.00000445,-0.00000838,0.00000007,0.00005086,0.0000682
 9,-0.00000012,-0.00000922,-0.00001594,0.00000019,0.00092694,-0.0004575
 8,-0.00000702,0.12052771,0.00000305,-0.00003071,0.,0.00000277,0.000031
 37,0.,-0.00006108,-0.00004915,0.00000007,0.00026309,0.00017901,-0.0000
 0032,0.00003060,-0.00004451,-0.00000003,-0.00004895,0.00002501,0.00000
 006,-0.00005876,0.00018405,0.00000011,0.00018373,-0.00003932,-0.000000
 22,0.00015359,-0.00041172,-0.00000017,-0.00107726,-0.00030438,0.000001
 21,0.00403822,-0.00248232,-0.00000535,-0.01435919,-0.01914462,0.000015
 21,-0.11310683,-0.27799295,0.00011625,0.00229910,0.00264102,-0.0000027
 0,0.00015901,0.00130898,-0.00000042,0.00070539,0.00046393,-0.00000076,
 -0.00001117,-0.00000342,0.00000001,-0.00001323,0.00000238,0.00000002,0
 .00000582,0.00000855,0.,0.00000229,-0.00000597,0.,-0.00001533,-0.00001
 769,0.00000001,-0.00006856,-0.00010258,0.00000008,0.00005515,0.0000022
 2,-0.00000007,0.00017214,0.00117446,0.00000019,0.12112918,0.29388238,0
 .00000004,0.00000002,-0.00001088,-0.00000003,-0.00000002,-0.00002955,0
 .,0.00000013,-0.00000169,-0.00000007,0.00000116,0.00045641,0.00000040,
 0.00000008,-0.00016817,-0.00000020,0.00000015,-0.00007764,-0.00000053,
 0.00000034,-0.00048997,0.00000038,-0.00000012,0.00013641,-0.00000076,-
 0.00000030,-0.00060670,-0.00000050,-0.00000033,0.00033056,0.00001197,-
 0.00000423,0.00828625,-0.00000931,-0.00002144,0.00403261,0.00008471,0.
 00011676,-0.03753486,0.00001534,0.00003344,0.00312890,0.00001278,-0.00
 000130,0.00515334,-0.00000018,-0.00000104,-0.00054886,0.00000002,0.,0.
 00000583,0.00000004,0.,-0.00000053,0.00000004,-0.00000004,0.00003667,0
 .00000010,0.00000004,0.00004032,0.00000007,0.,0.00006369,-0.00000013,-
 0.00000008,-0.00005827,0.00000019,0.,0.00015458,-0.00000698,0.00000092
 ,-0.00510713,-0.00010216,-0.00012385,0.02594038,0.00003885,0.00004017,
 -0.00000008,-0.00011782,0.00006905,0.00000020,0.00041924,-0.00014894,-
 0.00000034,-0.00014512,0.00063875,-0.00000503,0.00017239,-0.00000335,0
 .00000021,-0.00003274,0.00006255,0.00000017,0.00065739,-0.00035306,-0.
 00000074,-0.00000869,-0.00020463,-0.00000074,-0.00016575,-0.00006381,0
 .00000049,0.00010194,0.00024111,-0.00000130,-0.00026976,-0.00084368,-0
 .00000036,-0.00490280,-0.00196478,0.00001189,-0.01080212,0.02794298,0.
 00001840,-0.13187073,0.12056649,0.00011472,0.01342458,-0.01214069,-0.0
 0001075,-0.00120205,-0.00270394,0.00001154,0.00000299,0.00002575,0.000
 00004,0.00002102,0.00000167,-0.00000006,-0.00035498,0.00006596,0.00000
 066,0.00001487,0.00002327,0.00000002,0.00003986,-0.00007110,-0.0000002
 4,0.00000449,0.00001529,0.00000007,0.00001614,-0.00005452,0.00000004,-
 0.00064926,0.00123316,0.00000094,0.00134120,-0.00038276,-0.00000521,0.
 13426687,-0.00004910,0.00017966,0.00000007,-0.00039425,0.00016446,0.00
 000046,-0.00001970,-0.00075919,-0.00000003,0.00071514,0.00141792,-0.00
 000046,-0.00013855,-0.00017461,0.00000013,0.00020430,0.00011173,-0.000
 00024,0.00141018,-0.00069443,-0.00000168,-0.00042565,-0.00033858,0.000
 00051,-0.00008950,-0.00000674,0.00000009,0.00006260,0.00015167,0.,-0.0
 0065627,0.00006930,0.00000080,-0.00072203,0.00134591,0.00000058,-0.003
 13462,0.00427114,0.00000368,0.12226863,-0.26315091,-0.00015560,0.01732
 604,-0.01844290,-0.00002152,-0.00427546,-0.00277962,0.00000423,-0.0000
 1206,0.00003747,0.00000001,-0.00002842,-0.00002041,0.00000003,-0.00048
 023,0.00031485,0.00000056,0.00001187,0.00000354,-0.00000002,0.00007077
 ,-0.00014951,-0.00000008,0.00000834,-0.00001773,-0.00000001,0.00004417
 ,-0.00003470,-0.00000006,-0.00017292,0.00007414,0.00000020,0.00046763,
 0.00072597,-0.00000030,-0.13199092,0.27770157,-0.00000008,-0.00000003,
 -0.00002866,0.00000017,-0.00000007,0.00004875,-0.00000034,0.00000012,0
 .00013127,-0.00000502,-0.00000037,-0.00451671,0.00000020,-0.00000003,0
 .00035407,0.00000018,-0.00000007,0.00011075,-0.00000063,0.00000036,0.0
 0003739,-0.00000075,0.00000026,-0.00063236,0.00000049,0.00000006,0.000
 26278,-0.00000131,-0.00000021,-0.00103313,-0.00000035,0.00000102,-0.00
 053783,0.00001196,0.00000202,0.00545566,0.00001648,-0.00003235,0.00357
 845,0.00011482,-0.00015362,-0.03935200,-0.00000893,0.00001264,0.004799
 17,0.00001145,0.00000241,0.00890055,0.00000004,-0.00000003,0.00003612,
 -0.00000006,0.,-0.00003228,0.00000063,-0.00000007,0.00021494,0.0000000
 2,-0.00000003,0.00003333,-0.00000023,0.00000008,-0.00016048,0.00000007
 ,-0.00000002,0.00006369,0.00000005,0.00000006,0.00005362,0.00000085,-0
 .00000143,0.00009472,-0.00000516,0.00000068,-0.00313170,-0.00013455,0.
 00016864,0.02524989\\0.00004039,-0.00004804,-0.00000005,0.00004047,0.0
 0004797,-0.00000004,-0.00007010,0.00002720,0.00000008,0.00005194,0.000
 00660,-0.00000006,0.00005193,-0.00000669,-0.00000006,-0.00007015,-0.00
 002708,0.00000008,-0.00001866,0.00006880,0.00000003,0.00000468,-0.0000
 1432,0.,-0.00001182,-0.00001825,0.00000001,0.00004115,0.00002154,-0.00
 000005,-0.00004039,0.00000004,0.00000005,0.00004111,-0.00002161,-0.000
 00005,-0.00001179,0.00001827,0.00000001,0.00000471,0.00001431,0.,-0.00
 001878,-0.00006877,0.00000002,-0.00000513,0.,0.,-0.00001621,0.00001587
 ,0.00000002,-0.00001624,-0.00001584,0.00000002,0.00000059,-0.00000631,
 0.,0.00000060,0.00000631,0.,0.00000558,-0.00000614,0.,-0.00000350,0.00
 000042,0.,-0.00000122,0.00000375,0.,-0.00000123,-0.00000375,0.,-0.0000
 0350,-0.00000041,0.,0.00000559,0.00000613,0.\\\@
 The archive entry for this job was punched.


 THERE ARE PEOPLE SO ADDICTED TO EXAGERATING THEY
 CAN'T TELL THE TRUTH WITHOUT LYING. -- FORTUNE COOKIE
 Job cpu time:       0 days  0 hours 43 minutes 20.1 seconds.
 Elapsed time:       0 days  0 hours  5 minutes 28.8 seconds.
 File lengths (MBytes):  RWF=    153 Int=      0 D2E=      0 Chk=      7 Scr=      2
 Normal termination of Gaussian 16 at Mon Mar 11 23:13:02 2024.
