 Entering Gaussian System, Link 0=g16
 Initial command:
 /opt/g16/l1.exe "/tmp/Gau-1177467.inp" -scrdir="/tmp/"
 Entering Link 1 = /opt/g16/l1.exe PID=   1177469.
  
 Copyright (c) 1988-2019, Gaussian, Inc.  All Rights Reserved.
  
 This is part of the Gaussian(R) 16 program.  It is based on
 the Gaussian(R) 09 system (copyright 2009, Gaussian, Inc.),
 the Gaussian(R) 03 system (copyright 2003, Gaussian, Inc.),
 the Gaussian(R) 98 system (copyright 1998, Gaussian, Inc.),
 the Gaussian(R) 94 system (copyright 1995, Gaussian, Inc.),
 the Gaussian 92(TM) system (copyright 1992, Gaussian, Inc.),
 the Gaussian 90(TM) system (copyright 1990, Gaussian, Inc.),
 the Gaussian 88(TM) system (copyright 1988, Gaussian, Inc.),
 the Gaussian 86(TM) system (copyright 1986, Carnegie Mellon
 University), and the Gaussian 82(TM) system (copyright 1983,
 Carnegie Mellon University). Gaussian is a federally registered
 trademark of Gaussian, Inc.
  
 This software contains proprietary and confidential information,
 including trade secrets, belonging to Gaussian, Inc.
  
 This software is provided under written license and may be
 used, copied, transmitted, or stored only in accord with that
 written license.
  
 The following legend is applicable only to US Government
 contracts under FAR:
  
                    RESTRICTED RIGHTS LEGEND
  
 Use, reproduction and disclosure by the US Government is
 subject to restrictions as set forth in subparagraphs (a)
 and (c) of the Commercial Computer Software - Restricted
 Rights clause in FAR 52.227-19.
  
 Gaussian, Inc.
 340 Quinnipiac St., Bldg. 40, Wallingford CT 06492
  
  
 ---------------------------------------------------------------
 Warning -- This program may not be used in any manner that
 competes with the business of Gaussian, Inc. or will provide
 assistance to any competitor of Gaussian, Inc.  The licensee
 of this program is prohibited from giving any competitor of
 Gaussian, Inc. access to this program.  By using this program,
 the user acknowledges that Gaussian, Inc. is engaged in the
 business of creating and licensing software in the field of
 computational chemistry and represents and warrants to the
 licensee that it is not a competitor of Gaussian, Inc. and that
 it will not use this program in any manner prohibited above.
 ---------------------------------------------------------------
  

 Cite this work as:
 Gaussian 16, Revision C.01,
 M. J. Frisch, G. W. Trucks, H. B. Schlegel, G. E. Scuseria, 
 M. A. Robb, J. R. Cheeseman, G. Scalmani, V. Barone, 
 G. A. Petersson, H. Nakatsuji, X. Li, M. Caricato, A. V. Marenich, 
 J. Bloino, B. G. Janesko, R. Gomperts, B. Mennucci, H. P. Hratchian, 
 J. V. Ortiz, A. F. Izmaylov, J. L. Sonnenberg, D. Williams-Young, 
 F. Ding, F. Lipparini, F. Egidi, J. Goings, B. Peng, A. Petrone, 
 T. Henderson, D. Ranasinghe, V. G. Zakrzewski, J. Gao, N. Rega, 
 G. Zheng, W. Liang, M. Hada, M. Ehara, K. Toyota, R. Fukuda, 
 J. Hasegawa, M. Ishida, T. Nakajima, Y. Honda, O. Kitao, H. Nakai, 
 T. Vreven, K. Throssell, J. A. Montgomery, Jr., J. E. Peralta, 
 F. Ogliaro, M. J. Bearpark, J. J. Heyd, E. N. Brothers, K. N. Kudin, 
 V. N. Staroverov, T. A. Keith, R. Kobayashi, J. Normand, 
 K. Raghavachari, A. P. Rendell, J. C. Burant, S. S. Iyengar, 
 J. Tomasi, M. Cossi, J. M. Millam, M. Klene, C. Adamo, R. Cammi, 
 J. W. Ochterski, R. L. Martin, K. Morokuma, O. Farkas, 
 J. B. Foresman, and D. J. Fox, Gaussian, Inc., Wallingford CT, 2019.
 
 ******************************************
 Gaussian 16:  ES64L-G16RevC.01  3-Jul-2019
                 8-Oct-2024 
 ******************************************
 %nprocshared=8
 Will use up to    8 processors via shared memory.
 %mem=10400MB
 ----------------------------------------------------------------------
 #N opt freq B3LYP/def2SVPP symm=veryloose em=gd3bj scale=0.961 press=0
 .987
 ----------------------------------------------------------------------
 1/18=20,19=15,26=3,38=1,113=-987000,114=961000/1,3;
 2/9=110,12=2,17=2,18=2,40=1/2;
 3/5=43,7=202,11=2,25=1,30=1,71=1,74=-5,124=41/1,2,3;
 4//1;
 5/5=2,38=5/2;
 6/7=2,8=2,9=2,10=2,28=1/1;
 7//1,2,3,16;
 1/18=20,19=15,26=3/3(2);
 2/9=110/2;
 99//99;
 2/9=110/2;
 3/5=43,7=202,11=2,25=1,30=1,71=1,74=-5,124=41/1,2,3;
 4/5=5,16=3,69=1/1;
 5/5=2,38=5/2;
 7//1,2,3,16;
 1/18=20,19=15,26=3/3(-5);
 2/9=110/2;
 6/7=2,8=2,9=2,10=2,19=2,28=1/1;
 99/9=1/99;
 ------------------------------------------
 c1ccc2c(c1)ccc1cc3c4ccccc4c4ccccc4c3cc12_2
 ------------------------------------------
 Symbolic Z-matrix:
 Charge =  0 Multiplicity = 1
 C                     6.0963    0.6215    0.2947 
 C                     5.204     1.659     0.0747 
 C                     3.8288    1.4048    0.0574 
 C                     3.2946    0.1061    0.259 
 C                     4.2322   -0.9347    0.4816 
 C                     5.612    -0.6676    0.4969 
 C                     3.7836   -2.2401    0.6882 
 C                     2.4233   -2.5324    0.6782 
 C                     1.4724   -1.5284    0.4613 
 C                     0.1028   -1.8453    0.4552 
 C                    -0.9393   -0.9009    0.2446 
 C                    -2.329    -1.2656    0.2458 
 C                    -2.7728   -2.6035    0.4583 
 C                    -4.1165   -2.9749    0.4627 
 C                    -5.0787   -2.0139    0.2529 
 C                    -4.6849   -0.6938    0.0413 
 C                    -3.3228   -0.2743    0.0293 
 C                    -2.937     1.0896   -0.1903 
 C                    -3.8879    2.1274   -0.413 
 C                    -3.5341    3.4581   -0.6282 
 C                    -2.2028    3.8056   -0.629 
 C                    -1.2423    2.818    -0.4146 
 C                    -1.5616    1.4468   -0.1908 
 C                    -0.5569    0.442     0.0285 
 C                     0.8429    0.7346    0.0403 
 C                     1.8837   -0.2066    0.2502 
 H                     7.1658    0.8119    0.3095 
 H                     5.5709    2.6697   -0.0844 
 H                     3.1768    2.255    -0.1194 
 H                     6.3262   -1.4705    0.6682 
 H                     4.4905   -3.0489    0.8602 
 H                     2.1129   -3.5621    0.8431 
 H                    -0.1438   -2.8896    0.6254 
 H                    -2.0674   -3.4107    0.63 
 H                    -4.398    -4.0107    0.63 
 H                    -6.1323   -2.2782    0.2517 
 H                    -5.4928    0.0138   -0.1177 
 H                    -4.9537    1.9209   -0.4247 
 H                    -4.3012    4.2093   -0.7929 
 H                    -1.9015    4.836    -0.7945 
 H                    -0.2131    3.1629   -0.4285 
 H                     1.151     1.7596   -0.1239 
 

 GradGradGradGradGradGradGradGradGradGradGradGradGradGradGradGradGradGrad
 Berny optimization.
 Initialization pass.
                           ----------------------------
                           !    Initial Parameters    !
                           ! (Angstroms and Degrees)  !
 --------------------------                            --------------------------
 ! Name  Definition              Value          Derivative Info.                !
 --------------------------------------------------------------------------------
 ! R1    R(1,2)                  1.386          estimate D2E/DX2                !
 ! R2    R(1,6)                  1.3918         estimate D2E/DX2                !
 ! R3    R(1,27)                 1.0864         estimate D2E/DX2                !
 ! R4    R(2,3)                  1.3986         estimate D2E/DX2                !
 ! R5    R(2,28)                 1.0869         estimate D2E/DX2                !
 ! R6    R(3,4)                  1.4187         estimate D2E/DX2                !
 ! R7    R(3,29)                 1.0859         estimate D2E/DX2                !
 ! R8    R(4,5)                  1.4184         estimate D2E/DX2                !
 ! R9    R(4,26)                 1.4452         estimate D2E/DX2                !
 ! R10   R(5,6)                  1.4055         estimate D2E/DX2                !
 ! R11   R(5,7)                  1.3957         estimate D2E/DX2                !
 ! R12   R(6,30)                 1.0882         estimate D2E/DX2                !
 ! R13   R(7,8)                  1.3914         estimate D2E/DX2                !
 ! R14   R(7,31)                 1.0879         estimate D2E/DX2                !
 ! R15   R(8,9)                  1.3997         estimate D2E/DX2                !
 ! R16   R(8,32)                 1.088          estimate D2E/DX2                !
 ! R17   R(9,10)                 1.4058         estimate D2E/DX2                !
 ! R18   R(9,26)                 1.4003         estimate D2E/DX2                !
 ! R19   R(10,11)                1.422          estimate D2E/DX2                !
 ! R20   R(10,33)                1.0864         estimate D2E/DX2                !
 ! R21   R(11,12)                1.4368         estimate D2E/DX2                !
 ! R22   R(11,24)                1.4129         estimate D2E/DX2                !
 ! R23   R(12,13)                1.4255         estimate D2E/DX2                !
 ! R24   R(12,17)                1.4203         estimate D2E/DX2                !
 ! R25   R(13,14)                1.3941         estimate D2E/DX2                !
 ! R26   R(13,34)                1.0857         estimate D2E/DX2                !
 ! R27   R(14,15)                1.376          estimate D2E/DX2                !
 ! R28   R(14,35)                1.0863         estimate D2E/DX2                !
 ! R29   R(15,16)                1.3937         estimate D2E/DX2                !
 ! R30   R(15,36)                1.0862         estimate D2E/DX2                !
 ! R31   R(16,17)                1.4253         estimate D2E/DX2                !
 ! R32   R(16,37)                1.0857         estimate D2E/DX2                !
 ! R33   R(17,18)                1.4343         estimate D2E/DX2                !
 ! R34   R(18,19)                1.4251         estimate D2E/DX2                !
 ! R35   R(18,23)                1.421          estimate D2E/DX2                !
 ! R36   R(19,20)                1.3936         estimate D2E/DX2                !
 ! R37   R(19,38)                1.0857         estimate D2E/DX2                !
 ! R38   R(20,21)                1.3759         estimate D2E/DX2                !
 ! R39   R(20,39)                1.0862         estimate D2E/DX2                !
 ! R40   R(21,22)                1.3942         estimate D2E/DX2                !
 ! R41   R(21,40)                1.0862         estimate D2E/DX2                !
 ! R42   R(22,23)                1.4256         estimate D2E/DX2                !
 ! R43   R(22,41)                1.0855         estimate D2E/DX2                !
 ! R44   R(23,24)                1.4378         estimate D2E/DX2                !
 ! R45   R(24,25)                1.4301         estimate D2E/DX2                !
 ! R46   R(25,26)                1.4189         estimate D2E/DX2                !
 ! R47   R(25,42)                1.0828         estimate D2E/DX2                !
 ! A1    A(2,1,6)              119.495          estimate D2E/DX2                !
 ! A2    A(2,1,27)             120.3143         estimate D2E/DX2                !
 ! A3    A(6,1,27)             120.1907         estimate D2E/DX2                !
 ! A4    A(1,2,3)              119.9294         estimate D2E/DX2                !
 ! A5    A(1,2,28)             120.1303         estimate D2E/DX2                !
 ! A6    A(3,2,28)             119.9403         estimate D2E/DX2                !
 ! A7    A(2,3,4)              122.3353         estimate D2E/DX2                !
 ! A8    A(2,3,29)             116.749          estimate D2E/DX2                !
 ! A9    A(4,3,29)             120.9157         estimate D2E/DX2                !
 ! A10   A(3,4,5)              116.4309         estimate D2E/DX2                !
 ! A11   A(3,4,26)             124.3908         estimate D2E/DX2                !
 ! A12   A(5,4,26)             119.1783         estimate D2E/DX2                !
 ! A13   A(4,5,6)              120.7434         estimate D2E/DX2                !
 ! A14   A(4,5,7)              119.8062         estimate D2E/DX2                !
 ! A15   A(6,5,7)              119.4504         estimate D2E/DX2                !
 ! A16   A(1,6,5)              121.066          estimate D2E/DX2                !
 ! A17   A(1,6,30)             118.5472         estimate D2E/DX2                !
 ! A18   A(5,6,30)             120.3867         estimate D2E/DX2                !
 ! A19   A(5,7,8)              120.6409         estimate D2E/DX2                !
 ! A20   A(5,7,31)             120.6583         estimate D2E/DX2                !
 ! A21   A(8,7,31)             118.7008         estimate D2E/DX2                !
 ! A22   A(7,8,9)              120.9702         estimate D2E/DX2                !
 ! A23   A(7,8,32)             118.4659         estimate D2E/DX2                !
 ! A24   A(9,8,32)             120.5638         estimate D2E/DX2                !
 ! A25   A(8,9,10)             120.0549         estimate D2E/DX2                !
 ! A26   A(8,9,26)             120.0584         estimate D2E/DX2                !
 ! A27   A(10,9,26)            119.8867         estimate D2E/DX2                !
 ! A28   A(9,10,11)            124.3942         estimate D2E/DX2                !
 ! A29   A(9,10,33)            115.9214         estimate D2E/DX2                !
 ! A30   A(11,10,33)           119.6844         estimate D2E/DX2                !
 ! A31   A(10,11,12)           122.6915         estimate D2E/DX2                !
 ! A32   A(10,11,24)           117.0986         estimate D2E/DX2                !
 ! A33   A(12,11,24)           120.2099         estimate D2E/DX2                !
 ! A34   A(11,12,13)           122.6488         estimate D2E/DX2                !
 ! A35   A(11,12,17)           119.9676         estimate D2E/DX2                !
 ! A36   A(13,12,17)           117.3836         estimate D2E/DX2                !
 ! A37   A(12,13,14)           123.4068         estimate D2E/DX2                !
 ! A38   A(12,13,34)           121.2726         estimate D2E/DX2                !
 ! A39   A(14,13,34)           115.3206         estimate D2E/DX2                !
 ! A40   A(13,14,15)           119.1735         estimate D2E/DX2                !
 ! A41   A(13,14,35)           120.2827         estimate D2E/DX2                !
 ! A42   A(15,14,35)           120.5437         estimate D2E/DX2                !
 ! A43   A(14,15,16)           119.1482         estimate D2E/DX2                !
 ! A44   A(14,15,36)           120.5637         estimate D2E/DX2                !
 ! A45   A(16,15,36)           120.2881         estimate D2E/DX2                !
 ! A46   A(15,16,17)           123.3722         estimate D2E/DX2                !
 ! A47   A(15,16,37)           115.4233         estimate D2E/DX2                !
 ! A48   A(17,16,37)           121.2045         estimate D2E/DX2                !
 ! A49   A(12,17,16)           117.5156         estimate D2E/DX2                !
 ! A50   A(12,17,18)           119.9221         estimate D2E/DX2                !
 ! A51   A(16,17,18)           122.5623         estimate D2E/DX2                !
 ! A52   A(17,18,19)           122.4752         estimate D2E/DX2                !
 ! A53   A(17,18,23)           119.9616         estimate D2E/DX2                !
 ! A54   A(19,18,23)           117.5632         estimate D2E/DX2                !
 ! A55   A(18,19,20)           123.3729         estimate D2E/DX2                !
 ! A56   A(18,19,38)           121.2125         estimate D2E/DX2                !
 ! A57   A(20,19,38)           115.4146         estimate D2E/DX2                !
 ! A58   A(19,20,21)           119.1357         estimate D2E/DX2                !
 ! A59   A(19,20,39)           120.296          estimate D2E/DX2                !
 ! A60   A(21,20,39)           120.5682         estimate D2E/DX2                !
 ! A61   A(20,21,22)           119.182          estimate D2E/DX2                !
 ! A62   A(20,21,40)           120.5345         estimate D2E/DX2                !
 ! A63   A(22,21,40)           120.2835         estimate D2E/DX2                !
 ! A64   A(21,22,23)           123.4475         estimate D2E/DX2                !
 ! A65   A(21,22,41)           115.2221         estimate D2E/DX2                !
 ! A66   A(23,22,41)           121.3304         estimate D2E/DX2                !
 ! A67   A(18,23,22)           117.2986         estimate D2E/DX2                !
 ! A68   A(18,23,24)           120.042          estimate D2E/DX2                !
 ! A69   A(22,23,24)           122.6595         estimate D2E/DX2                !
 ! A70   A(11,24,23)           119.8969         estimate D2E/DX2                !
 ! A71   A(11,24,25)           117.2654         estimate D2E/DX2                !
 ! A72   A(23,24,25)           122.8377         estimate D2E/DX2                !
 ! A73   A(24,25,26)           125.6971         estimate D2E/DX2                !
 ! A74   A(24,25,42)           118.0945         estimate D2E/DX2                !
 ! A75   A(26,25,42)           116.2084         estimate D2E/DX2                !
 ! A76   A(4,26,9)             119.346          estimate D2E/DX2                !
 ! A77   A(4,26,25)            124.996          estimate D2E/DX2                !
 ! A78   A(9,26,25)            115.658          estimate D2E/DX2                !
 ! D1    D(6,1,2,3)             -0.0007         estimate D2E/DX2                !
 ! D2    D(6,1,2,28)           179.9998         estimate D2E/DX2                !
 ! D3    D(27,1,2,3)          -179.9952         estimate D2E/DX2                !
 ! D4    D(27,1,2,28)            0.0052         estimate D2E/DX2                !
 ! D5    D(2,1,6,5)              0.0023         estimate D2E/DX2                !
 ! D6    D(2,1,6,30)           179.9994         estimate D2E/DX2                !
 ! D7    D(27,1,6,5)           179.9968         estimate D2E/DX2                !
 ! D8    D(27,1,6,30)           -0.0061         estimate D2E/DX2                !
 ! D9    D(1,2,3,4)             -0.0011         estimate D2E/DX2                !
 ! D10   D(1,2,3,29)          -179.9968         estimate D2E/DX2                !
 ! D11   D(28,2,3,4)           179.9985         estimate D2E/DX2                !
 ! D12   D(28,2,3,29)            0.0028         estimate D2E/DX2                !
 ! D13   D(2,3,4,5)              0.0012         estimate D2E/DX2                !
 ! D14   D(2,3,4,26)          -179.9971         estimate D2E/DX2                !
 ! D15   D(29,3,4,5)           179.9967         estimate D2E/DX2                !
 ! D16   D(29,3,4,26)           -0.0016         estimate D2E/DX2                !
 ! D17   D(3,4,5,6)              0.0004         estimate D2E/DX2                !
 ! D18   D(3,4,5,7)            179.9995         estimate D2E/DX2                !
 ! D19   D(26,4,5,6)           179.9988         estimate D2E/DX2                !
 ! D20   D(26,4,5,7)            -0.0021         estimate D2E/DX2                !
 ! D21   D(3,4,26,9)           179.9997         estimate D2E/DX2                !
 ! D22   D(3,4,26,25)           -0.0029         estimate D2E/DX2                !
 ! D23   D(5,4,26,9)             0.0014         estimate D2E/DX2                !
 ! D24   D(5,4,26,25)          179.9988         estimate D2E/DX2                !
 ! D25   D(4,5,6,1)             -0.0022         estimate D2E/DX2                !
 ! D26   D(4,5,6,30)          -179.9992         estimate D2E/DX2                !
 ! D27   D(7,5,6,1)            179.9988         estimate D2E/DX2                !
 ! D28   D(7,5,6,30)             0.0017         estimate D2E/DX2                !
 ! D29   D(4,5,7,8)             -0.0016         estimate D2E/DX2                !
 ! D30   D(4,5,7,31)           179.9993         estimate D2E/DX2                !
 ! D31   D(6,5,7,8)            179.9975         estimate D2E/DX2                !
 ! D32   D(6,5,7,31)            -0.0016         estimate D2E/DX2                !
 ! D33   D(5,7,8,9)              0.0061         estimate D2E/DX2                !
 ! D34   D(5,7,8,32)           179.9996         estimate D2E/DX2                !
 ! D35   D(31,7,8,9)          -179.9948         estimate D2E/DX2                !
 ! D36   D(31,7,8,32)           -0.0013         estimate D2E/DX2                !
 ! D37   D(7,8,9,10)          -179.9981         estimate D2E/DX2                !
 ! D38   D(7,8,9,26)            -0.0067         estimate D2E/DX2                !
 ! D39   D(32,8,9,10)            0.0086         estimate D2E/DX2                !
 ! D40   D(32,8,9,26)          179.9999         estimate D2E/DX2                !
 ! D41   D(8,9,10,11)          179.9992         estimate D2E/DX2                !
 ! D42   D(8,9,10,33)           -0.0131         estimate D2E/DX2                !
 ! D43   D(26,9,10,11)           0.0078         estimate D2E/DX2                !
 ! D44   D(26,9,10,33)         179.9955         estimate D2E/DX2                !
 ! D45   D(8,9,26,4)             0.0029         estimate D2E/DX2                !
 ! D46   D(8,9,26,25)         -179.9947         estimate D2E/DX2                !
 ! D47   D(10,9,26,4)          179.9943         estimate D2E/DX2                !
 ! D48   D(10,9,26,25)          -0.0034         estimate D2E/DX2                !
 ! D49   D(9,10,11,12)         179.995          estimate D2E/DX2                !
 ! D50   D(9,10,11,24)          -0.0056         estimate D2E/DX2                !
 ! D51   D(33,10,11,12)          0.0078         estimate D2E/DX2                !
 ! D52   D(33,10,11,24)       -179.9929         estimate D2E/DX2                !
 ! D53   D(10,11,12,13)          0.0            estimate D2E/DX2                !
 ! D54   D(10,11,12,17)        179.9961         estimate D2E/DX2                !
 ! D55   D(24,11,12,13)       -179.9994         estimate D2E/DX2                !
 ! D56   D(24,11,12,17)         -0.0033         estimate D2E/DX2                !
 ! D57   D(10,11,24,23)       -179.9947         estimate D2E/DX2                !
 ! D58   D(10,11,24,25)         -0.0006         estimate D2E/DX2                !
 ! D59   D(12,11,24,23)          0.0047         estimate D2E/DX2                !
 ! D60   D(12,11,24,25)        179.9987         estimate D2E/DX2                !
 ! D61   D(11,12,13,14)       -179.999          estimate D2E/DX2                !
 ! D62   D(11,12,13,34)         -0.0012         estimate D2E/DX2                !
 ! D63   D(17,12,13,14)          0.0048         estimate D2E/DX2                !
 ! D64   D(17,12,13,34)       -179.9974         estimate D2E/DX2                !
 ! D65   D(11,12,17,16)       -179.9976         estimate D2E/DX2                !
 ! D66   D(11,12,17,18)          0.0035         estimate D2E/DX2                !
 ! D67   D(13,12,17,16)         -0.0013         estimate D2E/DX2                !
 ! D68   D(13,12,17,18)        179.9998         estimate D2E/DX2                !
 ! D69   D(12,13,14,15)         -0.0062         estimate D2E/DX2                !
 ! D70   D(12,13,14,35)       -179.9997         estimate D2E/DX2                !
 ! D71   D(34,13,14,15)        179.9959         estimate D2E/DX2                !
 ! D72   D(34,13,14,35)          0.0024         estimate D2E/DX2                !
 ! D73   D(13,14,15,16)          0.0039         estimate D2E/DX2                !
 ! D74   D(13,14,15,36)       -179.9987         estimate D2E/DX2                !
 ! D75   D(35,14,15,16)        179.9974         estimate D2E/DX2                !
 ! D76   D(35,14,15,36)         -0.0052         estimate D2E/DX2                !
 ! D77   D(14,15,16,17)         -0.0006         estimate D2E/DX2                !
 ! D78   D(14,15,16,37)        179.9953         estimate D2E/DX2                !
 ! D79   D(36,15,16,17)       -179.998          estimate D2E/DX2                !
 ! D80   D(36,15,16,37)         -0.0021         estimate D2E/DX2                !
 ! D81   D(15,16,17,12)         -0.0006         estimate D2E/DX2                !
 ! D82   D(15,16,17,18)        179.9982         estimate D2E/DX2                !
 ! D83   D(37,16,17,12)       -179.9963         estimate D2E/DX2                !
 ! D84   D(37,16,17,18)          0.0025         estimate D2E/DX2                !
 ! D85   D(12,17,18,19)        179.9981         estimate D2E/DX2                !
 ! D86   D(12,17,18,23)         -0.0052         estimate D2E/DX2                !
 ! D87   D(16,17,18,19)         -0.0008         estimate D2E/DX2                !
 ! D88   D(16,17,18,23)        179.996          estimate D2E/DX2                !
 ! D89   D(17,18,19,20)        179.9969         estimate D2E/DX2                !
 ! D90   D(17,18,19,38)          0.0039         estimate D2E/DX2                !
 ! D91   D(23,18,19,20)          0.0001         estimate D2E/DX2                !
 ! D92   D(23,18,19,38)       -179.9929         estimate D2E/DX2                !
 ! D93   D(17,18,23,22)       -179.9981         estimate D2E/DX2                !
 ! D94   D(17,18,23,24)          0.0066         estimate D2E/DX2                !
 ! D95   D(19,18,23,22)         -0.0012         estimate D2E/DX2                !
 ! D96   D(19,18,23,24)       -179.9965         estimate D2E/DX2                !
 ! D97   D(18,19,20,21)          0.0005         estimate D2E/DX2                !
 ! D98   D(18,19,20,39)       -179.9986         estimate D2E/DX2                !
 ! D99   D(38,19,20,21)        179.9938         estimate D2E/DX2                !
 ! D100  D(38,19,20,39)         -0.0053         estimate D2E/DX2                !
 ! D101  D(19,20,21,22)          0.0002         estimate D2E/DX2                !
 ! D102  D(19,20,21,40)        179.9948         estimate D2E/DX2                !
 ! D103  D(39,20,21,22)        179.9993         estimate D2E/DX2                !
 ! D104  D(39,20,21,40)         -0.0061         estimate D2E/DX2                !
 ! D105  D(20,21,22,23)         -0.0014         estimate D2E/DX2                !
 ! D106  D(20,21,22,41)        179.9975         estimate D2E/DX2                !
 ! D107  D(40,21,22,23)       -179.996          estimate D2E/DX2                !
 ! D108  D(40,21,22,41)          0.0029         estimate D2E/DX2                !
 ! D109  D(21,22,23,18)          0.0019         estimate D2E/DX2                !
 ! D110  D(21,22,23,24)        179.9971         estimate D2E/DX2                !
 ! D111  D(41,22,23,18)       -179.9969         estimate D2E/DX2                !
 ! D112  D(41,22,23,24)         -0.0018         estimate D2E/DX2                !
 ! D113  D(18,23,24,11)         -0.0063         estimate D2E/DX2                !
 ! D114  D(18,23,24,25)        179.9999         estimate D2E/DX2                !
 ! D115  D(22,23,24,11)        179.9986         estimate D2E/DX2                !
 ! D116  D(22,23,24,25)          0.0049         estimate D2E/DX2                !
 ! D117  D(11,24,25,26)          0.0049         estimate D2E/DX2                !
 ! D118  D(11,24,25,42)       -179.999          estimate D2E/DX2                !
 ! D119  D(23,24,25,26)        179.9988         estimate D2E/DX2                !
 ! D120  D(23,24,25,42)         -0.005          estimate D2E/DX2                !
 ! D121  D(24,25,26,4)         179.9996         estimate D2E/DX2                !
 ! D122  D(24,25,26,9)          -0.0029         estimate D2E/DX2                !
 ! D123  D(42,25,26,4)           0.0035         estimate D2E/DX2                !
 ! D124  D(42,25,26,9)        -179.9991         estimate D2E/DX2                !
 --------------------------------------------------------------------------------
 Trust Radius=3.00D-01 FncErr=1.00D-07 GrdErr=1.00D-06 EigMax=2.50D+02 EigMin=1.00D-04
 Number of steps in this run=    252 maximum allowed number of steps=    252.
 GradGradGradGradGradGradGradGradGradGradGradGradGradGradGradGradGradGrad

                          Input orientation:                          
 ---------------------------------------------------------------------
 Center     Atomic      Atomic             Coordinates (Angstroms)
 Number     Number       Type             X           Y           Z
 ---------------------------------------------------------------------
      1          6           0        6.096300    0.621500    0.294700
      2          6           0        5.204000    1.659000    0.074700
      3          6           0        3.828800    1.404800    0.057400
      4          6           0        3.294600    0.106100    0.259000
      5          6           0        4.232200   -0.934700    0.481600
      6          6           0        5.612000   -0.667600    0.496900
      7          6           0        3.783600   -2.240100    0.688200
      8          6           0        2.423300   -2.532400    0.678200
      9          6           0        1.472400   -1.528400    0.461300
     10          6           0        0.102800   -1.845300    0.455200
     11          6           0       -0.939300   -0.900900    0.244600
     12          6           0       -2.329000   -1.265600    0.245800
     13          6           0       -2.772800   -2.603500    0.458300
     14          6           0       -4.116500   -2.974900    0.462700
     15          6           0       -5.078700   -2.013900    0.252900
     16          6           0       -4.684900   -0.693800    0.041300
     17          6           0       -3.322800   -0.274300    0.029300
     18          6           0       -2.937000    1.089600   -0.190300
     19          6           0       -3.887900    2.127400   -0.413000
     20          6           0       -3.534100    3.458100   -0.628200
     21          6           0       -2.202800    3.805600   -0.629000
     22          6           0       -1.242300    2.818000   -0.414600
     23          6           0       -1.561600    1.446800   -0.190800
     24          6           0       -0.556900    0.442000    0.028500
     25          6           0        0.842900    0.734600    0.040300
     26          6           0        1.883700   -0.206600    0.250200
     27          1           0        7.165800    0.811900    0.309500
     28          1           0        5.570900    2.669700   -0.084400
     29          1           0        3.176800    2.255000   -0.119400
     30          1           0        6.326200   -1.470500    0.668200
     31          1           0        4.490500   -3.048900    0.860200
     32          1           0        2.112900   -3.562100    0.843100
     33          1           0       -0.143800   -2.889600    0.625400
     34          1           0       -2.067400   -3.410700    0.630000
     35          1           0       -4.398000   -4.010700    0.630000
     36          1           0       -6.132300   -2.278200    0.251700
     37          1           0       -5.492800    0.013800   -0.117700
     38          1           0       -4.953700    1.920900   -0.424700
     39          1           0       -4.301200    4.209300   -0.792900
     40          1           0       -1.901500    4.836000   -0.794500
     41          1           0       -0.213100    3.162900   -0.428500
     42          1           0        1.151000    1.759600   -0.123900
 ---------------------------------------------------------------------
                    Distance matrix (angstroms):
                    1          2          3          4          5
     1  C    0.000000
     2  C    1.386003   0.000000
     3  C    2.410690   1.398604   0.000000
     4  C    2.848936   2.468050   1.418673   0.000000
     5  C    2.435479   2.799508   2.411625   1.418418   0.000000
     6  C    1.391837   2.399538   2.769080   2.454700   1.405498
     7  C    3.700294   4.194866   3.699358   2.434746   1.395706
     8  C    4.856448   5.065998   4.226389   2.810084   2.421449
     9  C    5.101988   4.922785   3.784101   2.456202   2.823010
    10  C    6.483279   6.200576   4.960289   3.746204   4.228692
    11  C    7.198603   6.657484   5.299630   4.352030   5.177038
    12  C    8.634189   8.082614   6.714539   5.788490   6.573769
    13  C    9.438661   9.052369   7.733583   6.647932   7.201074
    14  C   10.828832  10.416107   9.081510   8.028602   8.594391
    15  C   11.481625  10.920434   9.543023   8.637511   9.376024
    16  C   10.864092  10.164995   8.768550   8.022447   8.931213
    17  C    9.465323   8.743342   7.346125   6.632303   7.597284
    18  C    9.058413   8.165190   6.777666   6.324712   7.479751
    19  C   10.121898   9.117011   7.764721   7.491698   8.724264
    20  C   10.081798   8.949035   7.674528   7.658601   8.991316
    21  C    8.936821   7.743628   6.528031   6.685525   8.069269
    22  C    7.693034   6.567913   5.285449   5.328377   6.697468
    23  C    7.717530   6.774132   5.396275   5.057912   6.300141
    24  C    6.660942   5.888225   4.490232   3.872985   5.003607
    25  C    5.260772   4.458127   3.060238   2.540408   3.803770
    26  C    4.293452   3.812566   2.533218   1.445163   2.469641
    27  H    1.086417   2.149737   3.398625   3.935339   3.418514
    28  H    2.148228   1.086942   2.157543   3.445506   3.886409
    29  H    3.370947   2.121893   1.085911   2.185139   3.413101
    30  H    2.137480   3.377180   3.857128   3.441469   2.169502
    31  H    4.046013   4.826014   4.573596   3.427192   2.163307
    32  H    5.802648   6.115981   5.313354   3.897856   3.394900
    33  H    7.167708   7.042159   5.877588   4.575048   4.794965
    34  H    9.111370   8.881637   7.634270   6.423128   6.770344
    35  H   11.476064  11.164778   9.865888   8.732799   9.163195
    36  H   12.567767  12.001857  10.621947   9.723754  10.453741
    37  H   11.612347  10.824289   9.426440   8.795955   9.789507
    38  H   11.149371  10.173341   8.810850   8.473216   9.662121
    39  H   11.052746   9.879554   8.642056   8.697064  10.045098
    40  H    9.105667   7.831792   6.733142   7.105017   8.517728
    41  H    6.840341   5.644457   4.434408   4.703259   6.113861
    42  H    5.091806   4.059110   2.707280   2.734172   4.137593
                    6          7          8          9         10
     6  C    0.000000
     7  C    2.419173   0.000000
     8  C    3.698399   1.391386   0.000000
     9  C    4.228301   2.428919   1.399740   0.000000
    10  C    5.633826   3.709238   2.430341   1.405798   0.000000
    11  C    6.560306   4.929100   3.762563   2.501402   1.422046
    12  C    7.967442   6.205582   4.937217   3.816562   2.508695
    13  C    8.605467   6.570487   5.201237   4.379220   2.973878
    14  C    9.998426   7.937403   6.558295   5.773055   4.367899
    15  C   10.777900   8.875867   7.531914   6.572370   5.188188
    16  C   10.307008   8.632787   7.369708   6.227785   4.941593
    17  C    8.955668   7.402664   6.207878   4.975272   3.792646
    18  C    8.754736   7.551498   6.527327   5.169266   4.274423
    19  C    9.944247   8.896045   7.920587   6.546915   5.697526
    20  C   10.096455   9.367557   8.548882   7.149632   6.521261
    21  C    9.074595   8.609442   7.954861   6.568668   6.198706
    22  C    7.743492   7.215276   6.577052   5.198845   4.930742
    23  C    7.510270   6.552636   5.698124   4.299094   3.745059
    24  C    6.285375   5.144784   4.260371   2.861442   2.418474
    25  C    4.991890   4.232769   3.684816   2.386353   2.715838
    26  C    3.764785   2.817195   2.425633   1.400316   2.428779
    27  H    2.153679   4.571367   5.814773   6.157504   7.547709
    28  H    3.387797   5.281807   6.127870   5.892328   7.111716
    29  H    3.853779   4.607206   4.911530   4.190025   5.156753
    30  H    1.088152   2.656595   4.044794   4.858553   6.238313
    31  H    2.657130   1.087864   2.138507   3.402935   4.567777
    32  H    4.554304   2.136098   1.088036   2.166090   2.671773
    33  H    6.171145   3.981239   2.592370   2.119410   1.086435
    34  H    8.155703   5.967235   4.576038   4.012692   2.681567
    35  H   10.554342   8.371200   6.979816   6.375882   4.997671
    36  H   11.856759   9.925576   8.569995   7.644449   6.253422
    37  H   11.142649   9.580247   8.353516   7.157348   5.924121
    38  H   10.917129   9.741298   8.687255   7.346933   6.366057
    39  H   11.122917  10.447603   9.635017   8.235817   7.590201
    40  H    9.402660   9.197280   8.669836   7.312033   7.086518
    41  H    7.032843   6.812712   6.372741   5.063689   5.095369
    42  H    5.116367   4.856716   4.547898   3.355101   3.798603
                   11         12         13         14         15
    11  C    0.000000
    12  C    1.436758   0.000000
    13  C    2.511222   1.425514   0.000000
    14  C    3.800479   2.482722   1.394090   0.000000
    15  C    4.286429   2.849711   2.388931   1.375996   0.000000
    16  C    3.756826   2.432908   2.734405   2.388320   1.393742
    17  C    2.473874   1.420277   2.431402   2.847988   2.481812
    18  C    2.853425   2.471197   3.753216   4.282265   3.796711
    19  C    4.277532   3.791653   4.938018   5.181947   4.360251
    20  C    5.147392   4.952725   6.205083   6.550782   5.753687
    21  C    4.950833   5.147647   6.525618   7.129463   6.550964
    22  C    3.789007   4.277012   5.700618   6.525977   6.205705
    23  C    2.467494   2.852479   4.277063   5.148399   4.954120
    24  C    1.412908   2.470517   3.790780   4.953230   5.150580
    25  C    2.427516   3.755527   4.938717   6.207613   6.531830
    26  C    2.907131   4.343770   5.241319   6.611433   7.193146
    27  H    8.284355   9.719634  10.510132  11.901833  12.566468
    28  H    7.432370   8.831989   9.885266  11.225264  11.638894
    29  H    5.199469   6.545367   7.703019   8.993493   9.301365
    30  H    7.300094   8.667923   9.171671  10.552508  11.425388
    31  H    5.871592   7.075537   7.288033   8.616492   9.644150
    32  H    4.093423   5.035986   4.993701   6.268567   7.379998
    33  H    2.175490   2.748922   2.649796   3.976945   5.025818
    34  H    2.778532   2.194880   1.085653   2.101600   3.340836
    35  H    4.667118   3.458894   2.156610   1.086330   2.143074
    36  H    5.372546   3.935795   3.381530   2.143213   1.086245
    37  H    4.658573   3.432000   3.818434   3.341166   2.102472
    38  H    4.952366   4.182392   5.099628   5.045517   3.994674
    39  H    6.204266   5.911260   7.093360   7.295435   6.358178
    40  H    5.909110   6.204394   7.594395   8.215652   7.623174
    41  H    4.182691   4.954122   6.371016   7.328257   7.137060
    42  H    3.403440   4.625896   5.896762   7.106768   7.293178
                   16         17         18         19         20
    16  C    0.000000
    17  C    1.425286   0.000000
    18  C    2.507849   1.434325   0.000000
    19  C    2.966609   2.506617   1.425074   0.000000
    20  C    4.360143   3.795756   2.481547   1.393646   0.000000
    21  C    5.182154   4.281745   2.847484   2.388006   1.375906
    22  C    4.938834   3.753378   2.430984   2.734251   2.389079
    23  C    3.793553   2.472338   1.421027   2.433980   2.850860
    24  C    4.281424   2.857147   2.476315   3.759130   4.288570
    25  C    5.709370   4.286147   3.803531   4.952357   5.198314
    26  C    6.589955   5.211624   5.011320   6.260891   6.599558
    27  H   11.948981  10.548416  10.118967  11.155126  11.062076
    28  H   10.793997   9.368989   8.654033   9.480030   9.155234
    29  H    8.398070   6.975978   6.224286   7.071949   6.836849
    30  H   11.056247   9.743833   9.648731  10.883093  11.099426
    31  H    9.508157   8.332854   8.567292   9.930393  10.437940
    32  H    7.421598   6.404587   6.943178   8.364078   9.128885
    33  H    5.077824   4.159468   4.929642   6.345616   7.304721
    34  H    3.818301   3.431308   4.656372   5.922214   7.135453
    35  H    3.380933   3.934156   5.368470   6.246945   7.623147
    36  H    2.156283   3.458087   4.663409   4.988834   6.358459
    37  H    1.085671   2.193971   2.773938   2.670246   3.995037
    38  H    2.669469   2.772157   2.193874   1.085684   2.102299
    39  H    4.988337   4.662183   3.457846   2.156258   1.086218
    40  H    6.246964   5.367859   3.933552   3.380509   2.142813
    41  H    5.923837   4.657699   3.431464   3.817939   3.340069
    42  H    6.332787   4.916819   4.143073   5.060570   5.008930
                   21         22         23         24         25
    21  C    0.000000
    22  C    1.394231   0.000000
    23  C    2.483363   1.425562   0.000000
    24  C    3.801986   2.512267   1.437754   0.000000
    25  C    4.376676   2.982541   2.518384   1.430103   0.000000
    26  C    5.793982   4.400232   3.846856   2.535027   1.418866
    27  H    9.879964   8.674382   8.764754   7.736658   6.329100
    28  H    7.875104   6.822809   7.237359   6.521145   5.110200
    29  H    5.621757   4.464589   4.807361   4.153235   2.790020
    30  H   10.112557   8.766178   8.453751   7.172443   5.943341
    31  H    9.695471   8.301242   7.612085   6.193089   5.319031
    32  H    8.664603   7.317435   6.297617   4.881006   4.551815
    33  H    7.116088   5.904659   4.634728   3.409765   3.801413
    34  H    7.326554   6.369355   4.952257   4.181711   5.099128
    35  H    8.215749   7.594786   6.205093   5.911209   7.094551
    36  H    7.295836   7.094174   5.912929   6.207608   7.600991
    37  H    5.046115   5.100827   4.184873   4.956595   6.378527
    38  H    3.340851   3.818295   3.433049   4.660943   5.934990
    39  H    2.143156   3.381671   3.936920   5.374666   6.263348
    40  H    1.086230   2.156662   3.459286   4.668245   5.005008
    41  H    2.100517   1.085542   2.195439   2.780350   2.689154
    42  H    3.960962   2.632983   2.731395   2.162456   1.082826
                   26         27         28         29         30
    26  C    0.000000
    27  H    5.379725   0.000000
    28  H    4.688337   2.479977   0.000000
    29  H    2.805029   4.263639   2.430003   0.000000
    30  H    4.637669   2.458240   4.275294   4.941496   0.000000
    31  H    3.904635   4.729300   5.895924   5.551286   2.428581
    32  H    3.415178   6.704357   7.187027   5.991406   4.707152
    33  H    3.383788   8.199460   8.004213   6.168308   6.623940
    34  H    5.101147  10.158004   9.789038   7.756506   8.615008
    35  H    7.353583  12.533222  12.021526   9.858914  11.021005
    36  H    8.279359  13.652528  12.710608  10.360838  12.491600
    37  H    7.388957  12.690927  11.378065   8.954605  11.937736
    38  H    7.192481  12.192260  10.556690   8.143087  11.829293
    39  H    7.670803  12.010400  10.016521   7.758439  12.138228
    40  H    6.391162   9.981389   7.812417   5.736415  10.469311
    41  H    4.026256   7.779461   5.815179   3.522960   8.089103
    42  H    2.131371   6.104407   4.512799   2.085499   6.151720
                   31         32         33         34         35
    31  H    0.000000
    32  H    2.432416   0.000000
    33  H    4.642978   2.364814   0.000000
    34  H    6.571906   4.188465   1.992938   0.000000
    35  H    8.943349   6.529814   4.399444   2.406594   0.000000
    36  H   10.668089   8.365493   6.031218   4.236635   2.480416
    37  H   10.488217   8.459129   6.131373   4.900982   4.237245
    38  H   10.749083   9.033684   6.883223   6.153786   6.050213
    39  H   11.519904  10.208420   8.348050   8.067150   8.342806
    40  H   10.284325   9.451202   8.049256   8.370471   9.301925
    41  H    7.897535   7.228614   6.143962   6.911662   8.372237
    42  H    5.936530   5.493708   4.883955   6.136649   8.040903
                   36         37         38         39         40
    36  H    0.000000
    37  H    2.408045   0.000000
    38  H    4.413508   2.005470   0.000000
    39  H    6.821420   4.413392   2.407925   0.000000
    40  H    8.343024   6.050546   4.236801   2.480185   0.000000
    41  H    8.068777   6.155376   4.900599   4.235599   2.404977
    42  H    8.336148   6.869347   6.114234   6.014572   4.385396
                   41         42
    41  H    0.000000
    42  H    1.980606   0.000000
 Stoichiometry    C26H16
 Framework group  CS[SG(C26H16)]
 Deg. of freedom    81
 Full point group                 CS      NOp   2
 Largest Abelian subgroup         CS      NOp   2
 Largest concise Abelian subgroup C1      NOp   1
                         Standard orientation:                         
 ---------------------------------------------------------------------
 Center     Atomic      Atomic             Coordinates (Angstroms)
 Number     Number       Type             X           Y           Z
 ---------------------------------------------------------------------
      1          6           0       -4.773982   -3.867816   -0.000000
      2          6           0       -4.885497   -2.486306   -0.000000
      3          6           0       -3.733483   -1.693239   -0.000000
      4          6           0       -2.428756   -2.250303   -0.000000
      5          6           0       -2.346850   -3.666355   -0.000000
      6          6           0       -3.511322   -4.453393   -0.000000
      7          6           0       -1.097739   -4.289024   -0.000000
      8          6           0        0.070980   -3.534007   -0.000000
      9          6           0        0.024740   -2.135031   -0.000000
     10          6           0        1.217599   -1.391154   -0.000000
     11          6           0        1.278294    0.029596    0.000000
     12          6           0        2.519476    0.753297    0.000000
     13          6           0        3.788421    0.103781    0.000000
     14          6           0        5.001927    0.789995    0.000000
     15          6           0        4.994391    2.165971    0.000000
     16          6           0        3.773449    2.838145    0.000000
     17          6           0        2.512591    2.173557    0.000000
     18          6           0        1.266001    2.882995    0.000000
     19          6           0        1.195621    4.306330    0.000000
     20          6           0       -0.004665    5.014540    0.000000
     21          6           0       -1.192347    4.319898    0.000000
     22          6           0       -1.164604    2.925942    0.000000
     23          6           0        0.040272    2.164034    0.000000
     24          6           0        0.049106    0.726307    0.000000
     25          6           0       -1.147693   -0.056550   -0.000000
     26          6           0       -1.209764   -1.474058   -0.000000
     27          1           0       -5.664692   -4.489859   -0.000000
     28          1           0       -5.866428   -2.018101   -0.000000
     29          1           0       -3.880768   -0.617363   -0.000000
     30          1           0       -3.441725   -5.539316   -0.000000
     31          1           0       -1.018776   -5.374019   -0.000000
     32          1           0        1.025613   -4.056020   -0.000000
     33          1           0        2.137634   -1.968976   -0.000000
     34          1           0        3.867303   -0.979002    0.000000
     35          1           0        5.940529    0.243058    0.000000
     36          1           0        5.926680    2.723436    0.000000
     37          1           0        3.838048    3.921892    0.000000
     38          1           0        2.095234    4.914116    0.000000
     39          1           0        0.000000    6.100748    0.000000
     40          1           0       -2.141065    4.848887    0.000000
     41          1           0       -2.137255    2.443913    0.000000
     42          1           0       -2.097347    0.463709   -0.000000
 ---------------------------------------------------------------------
 Rotational constants (GHZ):           0.4072667           0.1288640           0.0978903
 Standard basis: def2SVPP (5D, 7F)
 There are   318 symmetry adapted cartesian basis functions of A'  symmetry.
 There are   104 symmetry adapted cartesian basis functions of A"  symmetry.
 There are   292 symmetry adapted basis functions of A'  symmetry.
 There are   104 symmetry adapted basis functions of A"  symmetry.
   396 basis functions,   714 primitive gaussians,   422 cartesian basis functions
    86 alpha electrons       86 beta electrons
       nuclear repulsion energy      1996.4371941464 Hartrees.
 NAtoms=   42 NActive=   42 NUniq=   42 SFac= 1.00D+00 NAtFMM=   60 NAOKFM=F Big=F
 Integral buffers will be    131072 words long.
 Raffenetti 2 integral format.
 Two-electron integral symmetry is turned on.
 Nuclear repulsion after empirical dispersion term =     1996.3259416016 Hartrees.
 One-electron integrals computed using PRISM.
   2 Symmetry operations used in ECPInt.
 ECPInt:  NShTT=   17766 NPrTT=   71262 LenC2=   15654 LenP2D=   41627.
 LDataN:  DoStor=T MaxTD1= 4 Len=   56
 NBasis=   396 RedAO= T EigKep=  1.38D-04  NBF=   292   104
 NBsUse=   396 1.00D-06 EigRej= -1.00D+00 NBFU=   292   104
 ExpMin= 1.22D-01 ExpMax= 1.24D+03 ExpMxC= 1.86D+02 IAcc=3 IRadAn=         5 AccDes= 0.00D+00
 Harris functional with IExCor=  402 and IRadAn=       5 diagonalized for initial guess.
 HarFok:  IExCor=  402 AccDes= 0.00D+00 IRadAn=         5 IDoV= 1 UseB2=F ITyADJ=14
 ICtDFT=  3500011 ScaDFX=  1.000000  1.000000  1.000000  1.000000
 FoFCou: FMM=F IPFlag=           0 FMFlag=      100000 FMFlg1=           0
         NFxFlg=           0 DoJE=T BraDBF=F KetDBF=T FulRan=T
         wScrn=  0.000000 ICntrl=       500 IOpCl=  0 I1Cent=   200000004 NGrid=           0
         NMat0=    1 NMatS0=      1 NMatT0=    0 NMatD0=    1 NMtDS0=    0 NMtDT0=    0
 Petite list used in FoFCou.
 Initial guess orbital symmetries:
       Occupied  (A') (A') (A') (A') (A') (A') (A') (A') (A') (A')
                 (A') (A') (A') (A') (A') (A') (A') (A') (A') (A')
                 (A') (A') (A') (A') (A') (A') (A') (A') (A') (A')
                 (A') (A') (A') (A') (A') (A') (A') (A') (A') (A')
                 (A') (A') (A') (A') (A') (A') (A') (A') (A') (A')
                 (A') (A') (A') (A') (A') (A') (A') (A') (A') (A')
                 (A') (A') (A') (A') (A') (A") (A') (A") (A') (A')
                 (A') (A') (A") (A') (A") (A') (A') (A") (A") (A")
                 (A") (A") (A") (A") (A") (A")
       Virtual   (A") (A") (A") (A") (A") (A") (A") (A") (A") (A')
                 (A") (A') (A") (A') (A') (A') (A') (A') (A') (A")
                 (A') (A') (A') (A') (A') (A") (A') (A') (A') (A')
                 (A') (A') (A') (A') (A') (A') (A') (A') (A') (A')
                 (A') (A') (A') (A') (A') (A') (A') (A') (A') (A')
                 (A') (A') (A') (A') (A') (A') (A') (A') (A') (A')
                 (A') (A') (A') (A') (A') (A") (A') (A') (A") (A')
                 (A') (A") (A') (A') (A") (A') (A') (A") (A') (A')
                 (A') (A') (A") (A") (A') (A") (A') (A') (A") (A")
                 (A') (A") (A") (A") (A') (A") (A") (A") (A') (A')
                 (A') (A') (A') (A") (A') (A') (A') (A') (A') (A')
                 (A") (A') (A") (A') (A') (A") (A') (A') (A') (A")
                 (A') (A') (A') (A") (A') (A') (A') (A") (A') (A')
                 (A") (A') (A') (A') (A') (A') (A') (A') (A") (A')
                 (A') (A') (A') (A") (A') (A') (A') (A') (A') (A')
                 (A') (A') (A') (A') (A') (A') (A') (A') (A") (A')
                 (A") (A") (A') (A') (A") (A") (A") (A') (A') (A')
                 (A') (A") (A') (A") (A') (A') (A") (A') (A') (A")
                 (A") (A') (A") (A") (A') (A") (A') (A") (A') (A")
                 (A") (A") (A") (A") (A") (A') (A') (A') (A') (A')
                 (A') (A') (A') (A') (A') (A') (A') (A") (A') (A')
                 (A") (A') (A') (A") (A") (A') (A') (A') (A') (A')
                 (A") (A') (A') (A') (A') (A') (A') (A') (A") (A')
                 (A') (A') (A") (A') (A") (A") (A') (A') (A') (A')
                 (A') (A') (A') (A") (A') (A') (A") (A") (A') (A")
                 (A') (A') (A") (A') (A") (A") (A") (A") (A") (A')
                 (A") (A") (A") (A") (A') (A") (A") (A') (A') (A')
                 (A') (A') (A') (A') (A') (A') (A") (A') (A') (A")
                 (A') (A") (A') (A') (A") (A') (A') (A") (A') (A')
                 (A') (A") (A') (A') (A') (A') (A') (A') (A') (A')
                 (A') (A') (A') (A') (A') (A') (A') (A') (A') (A')
 The electronic state of the initial guess is 1-A'.
 Requested convergence on RMS density matrix=1.00D-08 within 128 cycles.
 Requested convergence on MAX density matrix=1.00D-06.
 Requested convergence on             energy=1.00D-06.
 No special actions if energy rises.
 Integral accuracy reduced to 1.0D-05 until final iterations.
 Initial convergence to 1.0D-05 achieved.  Increase integral accuracy.
 SCF Done:  E(RB3LYP) =  -999.819364164     A.U. after   15 cycles
            NFock= 15  Conv=0.83D-08     -V/T= 2.0107

 **********************************************************************

            Population analysis using the SCF Density.

 **********************************************************************

 Orbital symmetries:
       Occupied  (A') (A') (A') (A') (A') (A') (A') (A') (A') (A')
                 (A') (A') (A') (A') (A') (A') (A') (A') (A') (A')
                 (A') (A') (A') (A') (A') (A') (A') (A') (A') (A')
                 (A') (A') (A') (A') (A') (A') (A') (A') (A') (A')
                 (A') (A') (A') (A') (A') (A') (A') (A') (A') (A')
                 (A') (A') (A') (A') (A') (A') (A') (A') (A') (A')
                 (A') (A') (A") (A') (A') (A') (A") (A') (A') (A')
                 (A") (A') (A") (A') (A') (A') (A") (A') (A") (A")
                 (A") (A") (A") (A") (A") (A")
       Virtual   (A") (A") (A") (A") (A") (A") (A") (A") (A') (A')
                 (A') (A') (A') (A") (A') (A') (A') (A') (A") (A')
                 (A') (A") (A') (A') (A') (A') (A") (A') (A') (A')
                 (A') (A") (A') (A') (A') (A') (A') (A') (A') (A')
                 (A') (A') (A') (A') (A') (A') (A') (A') (A') (A')
                 (A') (A') (A') (A') (A') (A') (A') (A') (A') (A')
                 (A') (A') (A') (A') (A") (A') (A") (A') (A") (A')
                 (A') (A') (A") (A') (A') (A") (A') (A') (A') (A")
                 (A') (A') (A") (A") (A') (A") (A') (A') (A") (A")
                 (A') (A") (A') (A") (A") (A") (A") (A') (A') (A")
                 (A') (A') (A') (A') (A") (A') (A") (A') (A') (A")
                 (A') (A') (A') (A") (A') (A') (A") (A') (A') (A')
                 (A') (A') (A") (A') (A") (A') (A') (A') (A') (A')
                 (A') (A') (A') (A') (A') (A") (A') (A') (A') (A')
                 (A') (A') (A") (A') (A') (A') (A') (A') (A') (A')
                 (A') (A') (A') (A') (A') (A') (A') (A') (A') (A')
                 (A") (A") (A') (A") (A") (A') (A") (A") (A') (A')
                 (A') (A') (A') (A") (A') (A") (A') (A') (A") (A')
                 (A") (A') (A') (A") (A') (A") (A") (A") (A") (A")
                 (A") (A") (A') (A") (A") (A") (A') (A') (A') (A')
                 (A') (A') (A') (A') (A') (A') (A") (A') (A') (A")
                 (A') (A") (A') (A") (A') (A') (A') (A') (A') (A')
                 (A") (A') (A') (A') (A') (A') (A') (A') (A") (A')
                 (A') (A') (A") (A") (A") (A') (A') (A') (A') (A')
                 (A') (A') (A") (A') (A') (A') (A") (A") (A") (A')
                 (A') (A") (A') (A") (A') (A") (A") (A") (A") (A')
                 (A") (A") (A") (A") (A') (A") (A") (A') (A') (A')
                 (A') (A') (A') (A') (A') (A") (A') (A') (A") (A")
                 (A') (A') (A') (A") (A') (A') (A") (A') (A') (A')
                 (A") (A') (A') (A') (A') (A') (A') (A') (A') (A')
                 (A') (A') (A') (A') (A') (A') (A') (A') (A') (A')
 The electronic state is 1-A'.
 Alpha  occ. eigenvalues --  -10.20371 -10.20353 -10.20304 -10.20290 -10.20282
 Alpha  occ. eigenvalues --  -10.20265 -10.20205 -10.20098 -10.19606 -10.19458
 Alpha  occ. eigenvalues --  -10.19374 -10.19315 -10.19157 -10.19150 -10.19124
 Alpha  occ. eigenvalues --  -10.19112 -10.19083 -10.19041 -10.19009 -10.18983
 Alpha  occ. eigenvalues --  -10.18941 -10.18921 -10.18870 -10.18866 -10.18823
 Alpha  occ. eigenvalues --  -10.18817  -0.89123  -0.87751  -0.84591  -0.84485
 Alpha  occ. eigenvalues --   -0.81496  -0.78800  -0.77646  -0.76888  -0.75330
 Alpha  occ. eigenvalues --   -0.73659  -0.71938  -0.71219  -0.70224  -0.65381
 Alpha  occ. eigenvalues --   -0.63623  -0.63354  -0.61658  -0.60507  -0.58956
 Alpha  occ. eigenvalues --   -0.58209  -0.56644  -0.54663  -0.52683  -0.51801
 Alpha  occ. eigenvalues --   -0.50956  -0.49886  -0.48412  -0.48137  -0.47075
 Alpha  occ. eigenvalues --   -0.45987  -0.44636  -0.43776  -0.43291  -0.43081
 Alpha  occ. eigenvalues --   -0.42751  -0.42716  -0.42064  -0.41845  -0.40983
 Alpha  occ. eigenvalues --   -0.40419  -0.40305  -0.38589  -0.37572  -0.37174
 Alpha  occ. eigenvalues --   -0.36714  -0.36713  -0.36463  -0.34924  -0.34441
 Alpha  occ. eigenvalues --   -0.32970  -0.32924  -0.32710  -0.30424  -0.29421
 Alpha  occ. eigenvalues --   -0.28664  -0.26700  -0.24574  -0.23239  -0.21827
 Alpha  occ. eigenvalues --   -0.20532
 Alpha virt. eigenvalues --   -0.06745  -0.05548  -0.04379  -0.02621  -0.00424
 Alpha virt. eigenvalues --    0.01843   0.02978   0.04143   0.05361   0.06059
 Alpha virt. eigenvalues --    0.06428   0.07639   0.07902   0.08205   0.09961
 Alpha virt. eigenvalues --    0.10201   0.11555   0.12360   0.13183   0.13350
 Alpha virt. eigenvalues --    0.13821   0.13895   0.15669   0.17642   0.19281
 Alpha virt. eigenvalues --    0.19837   0.20082   0.22166   0.22474   0.22963
 Alpha virt. eigenvalues --    0.23376   0.24167   0.25263   0.25752   0.26276
 Alpha virt. eigenvalues --    0.26839   0.26989   0.27777   0.28331   0.28879
 Alpha virt. eigenvalues --    0.29550   0.29905   0.30773   0.31332   0.31648
 Alpha virt. eigenvalues --    0.32917   0.33262   0.33803   0.34284   0.34321
 Alpha virt. eigenvalues --    0.35266   0.36037   0.37260   0.37772   0.38411
 Alpha virt. eigenvalues --    0.38822   0.39706   0.41036   0.41344   0.41656
 Alpha virt. eigenvalues --    0.42016   0.43034   0.43288   0.43651   0.44377
 Alpha virt. eigenvalues --    0.45021   0.45570   0.45769   0.47003   0.47074
 Alpha virt. eigenvalues --    0.47351   0.47630   0.47681   0.47917   0.48710
 Alpha virt. eigenvalues --    0.49066   0.49389   0.49736   0.50144   0.50847
 Alpha virt. eigenvalues --    0.51107   0.51193   0.51307   0.51665   0.53917
 Alpha virt. eigenvalues --    0.54221   0.54277   0.55127   0.55328   0.56304
 Alpha virt. eigenvalues --    0.56838   0.57064   0.57337   0.58524   0.60103
 Alpha virt. eigenvalues --    0.61101   0.61863   0.62471   0.64546   0.64798
 Alpha virt. eigenvalues --    0.65351   0.65922   0.66560   0.67288   0.67614
 Alpha virt. eigenvalues --    0.67802   0.67833   0.68303   0.68467   0.68739
 Alpha virt. eigenvalues --    0.68876   0.69542   0.69965   0.69984   0.71041
 Alpha virt. eigenvalues --    0.71539   0.72204   0.72597   0.72933   0.73470
 Alpha virt. eigenvalues --    0.73942   0.75025   0.75089   0.75770   0.76583
 Alpha virt. eigenvalues --    0.76737   0.76879   0.77914   0.78536   0.79369
 Alpha virt. eigenvalues --    0.79675   0.80520   0.81510   0.82050   0.82811
 Alpha virt. eigenvalues --    0.82911   0.83193   0.84255   0.85367   0.85675
 Alpha virt. eigenvalues --    0.86225   0.87597   0.88305   0.88668   0.91671
 Alpha virt. eigenvalues --    0.93411   0.95204   0.95859   0.98474   1.02173
 Alpha virt. eigenvalues --    1.03590   1.05232   1.07348   1.11170   1.12453
 Alpha virt. eigenvalues --    1.12959   1.14867   1.17223   1.19059   1.20775
 Alpha virt. eigenvalues --    1.20931   1.21255   1.21778   1.23302   1.23879
 Alpha virt. eigenvalues --    1.23979   1.25547   1.25752   1.27145   1.27635
 Alpha virt. eigenvalues --    1.28757   1.29850   1.32676   1.33186   1.33289
 Alpha virt. eigenvalues --    1.34391   1.34408   1.35903   1.37196   1.38865
 Alpha virt. eigenvalues --    1.40222   1.40309   1.41888   1.42191   1.42833
 Alpha virt. eigenvalues --    1.43494   1.43979   1.45530   1.46725   1.48408
 Alpha virt. eigenvalues --    1.48641   1.48798   1.49202   1.49533   1.49778
 Alpha virt. eigenvalues --    1.50205   1.51700   1.53270   1.53858   1.58642
 Alpha virt. eigenvalues --    1.66078   1.67728   1.69802   1.71192   1.72002
 Alpha virt. eigenvalues --    1.73228   1.73772   1.74814   1.75559   1.75646
 Alpha virt. eigenvalues --    1.76283   1.78351   1.79120   1.79586   1.80137
 Alpha virt. eigenvalues --    1.82368   1.82442   1.83846   1.84484   1.85123
 Alpha virt. eigenvalues --    1.85564   1.86648   1.87327   1.88874   1.91341
 Alpha virt. eigenvalues --    1.92373   1.94070   1.94612   1.96763   1.98776
 Alpha virt. eigenvalues --    2.00416   2.02989   2.03242   2.04790   2.04831
 Alpha virt. eigenvalues --    2.05493   2.06499   2.08076   2.08436   2.09730
 Alpha virt. eigenvalues --    2.11039   2.12532   2.14498   2.14788   2.16510
 Alpha virt. eigenvalues --    2.17244   2.18249   2.18728   2.19226   2.20032
 Alpha virt. eigenvalues --    2.20724   2.21917   2.22089   2.23613   2.23888
 Alpha virt. eigenvalues --    2.25756   2.27515   2.28726   2.29219   2.29771
 Alpha virt. eigenvalues --    2.30369   2.33932   2.34382   2.36182   2.36863
 Alpha virt. eigenvalues --    2.37473   2.38307   2.39772   2.40814   2.47944
 Alpha virt. eigenvalues --    2.48497   2.49431   2.51788   2.56082   2.56947
 Alpha virt. eigenvalues --    2.58396   2.58600   2.59869   2.60555   2.60784
 Alpha virt. eigenvalues --    2.61043   2.62598   2.63734   2.64375   2.64793
 Alpha virt. eigenvalues --    2.66584   2.67179   2.67490   2.69778   2.70174
 Alpha virt. eigenvalues --    2.71168   2.73344   2.75111   2.76810   2.79194
 Alpha virt. eigenvalues --    2.81881   2.84422   2.84576   2.90751   2.94142
 Alpha virt. eigenvalues --    2.97728   3.01292   3.05455   3.07619   3.26776
 Alpha virt. eigenvalues --    3.29730   3.35496   3.42655   3.49242   3.56559
          Condensed to atoms (all electrons):
               1          2          3          4          5          6
     1  C    5.233167   0.170319   0.141705  -0.155403   0.150659   0.194527
     2  C    0.170319   5.203870   0.247913   0.121062  -0.169194   0.149091
     3  C    0.141705   0.247913   5.442786   0.253714   0.016121  -0.172495
     4  C   -0.155403   0.121062   0.253714   5.565697   0.075370   0.045786
     5  C    0.150659  -0.169194   0.016121   0.075370   5.490607   0.228138
     6  C    0.194527   0.149091  -0.172495   0.045786   0.228138   5.459532
     7  C    0.022181  -0.002265   0.027936   0.028105   0.150152  -0.162381
     8  C   -0.001460   0.000215  -0.004121  -0.141206   0.159412   0.019369
     9  C   -0.000045   0.000312   0.024291   0.004748  -0.180880  -0.000868
    10  C   -0.000002   0.000002  -0.000258   0.028393  -0.001810   0.000061
    11  C   -0.000000   0.000004  -0.000003  -0.003768  -0.000032  -0.000001
    12  C    0.000000   0.000000   0.000000   0.000088  -0.000003  -0.000000
    13  C   -0.000000   0.000000   0.000000   0.000001  -0.000000   0.000000
    14  C   -0.000000   0.000000   0.000000   0.000000  -0.000000   0.000000
    15  C    0.000000  -0.000000  -0.000000   0.000000   0.000000  -0.000000
    16  C   -0.000000   0.000000   0.000000  -0.000000   0.000000   0.000000
    17  C    0.000000  -0.000000  -0.000000  -0.000004   0.000000   0.000000
    18  C    0.000000  -0.000000   0.000001   0.000011  -0.000000   0.000000
    19  C    0.000000   0.000000  -0.000000   0.000000   0.000000  -0.000000
    20  C    0.000000  -0.000000   0.000000   0.000000   0.000000   0.000000
    21  C   -0.000000   0.000000  -0.000000  -0.000003  -0.000000   0.000000
    22  C    0.000000   0.000000   0.000003  -0.000115   0.000001  -0.000000
    23  C    0.000000  -0.000002  -0.000071   0.000134   0.000008   0.000000
    24  C    0.000005  -0.000073  -0.000136   0.020756   0.000522  -0.000003
    25  C    0.000017   0.000337  -0.033466  -0.146238   0.024506  -0.000283
    26  C   -0.004042   0.021015  -0.141159   0.206302   0.013889   0.026111
    27  H    0.436416  -0.084225   0.015183  -0.001194   0.015722  -0.078982
    28  H   -0.085723   0.435699  -0.074855   0.015750  -0.001667   0.015551
    29  H    0.015565  -0.079717   0.415190  -0.048023   0.019023  -0.001875
    30  H   -0.083289   0.016235  -0.002270   0.017009  -0.080018   0.441032
    31  H    0.001030  -0.000068  -0.000309   0.015833  -0.088404  -0.020060
    32  H    0.000013  -0.000002   0.000056  -0.001742   0.016793  -0.000576
    33  H    0.000000  -0.000000   0.000013  -0.000297  -0.000051  -0.000002
    34  H   -0.000000   0.000000  -0.000000  -0.000001   0.000000   0.000000
    35  H    0.000000   0.000000   0.000000   0.000000  -0.000000  -0.000000
    36  H    0.000000  -0.000000   0.000000  -0.000000  -0.000000  -0.000000
    37  H    0.000000  -0.000000   0.000000  -0.000000  -0.000000   0.000000
    38  H    0.000000  -0.000000  -0.000000   0.000000  -0.000000   0.000000
    39  H   -0.000000   0.000000   0.000000  -0.000000  -0.000000   0.000000
    40  H   -0.000000   0.000000  -0.000000  -0.000000  -0.000000   0.000000
    41  H    0.000000   0.000002   0.000050  -0.000081  -0.000001   0.000000
    42  H   -0.000040   0.000855   0.013786  -0.040051  -0.001265   0.000033
               7          8          9         10         11         12
     1  C    0.022181  -0.001460  -0.000045  -0.000002  -0.000000   0.000000
     2  C   -0.002265   0.000215   0.000312   0.000002   0.000004   0.000000
     3  C    0.027936  -0.004121   0.024291  -0.000258  -0.000003   0.000000
     4  C    0.028105  -0.141206   0.004748   0.028393  -0.003768   0.000088
     5  C    0.150152   0.159412  -0.180880  -0.001810  -0.000032  -0.000003
     6  C   -0.162381   0.019369  -0.000868   0.000061  -0.000001  -0.000000
     7  C    5.518689   0.187389   0.160779   0.020743  -0.001267   0.000003
     8  C    0.187389   5.537565   0.142708  -0.158509   0.021118  -0.000664
     9  C    0.160779   0.142708   5.543515   0.222954   0.146970   0.031814
    10  C    0.020743  -0.158509   0.222954   5.769925   0.238812  -0.155826
    11  C   -0.001267   0.021118   0.146970   0.238812   5.732726   0.201038
    12  C    0.000003  -0.000664   0.031814  -0.155826   0.201038   5.700391
    13  C    0.000001  -0.000067   0.000445  -0.027126  -0.153737   0.246680
    14  C    0.000000  -0.000001  -0.000183   0.000159   0.029246   0.143518
    15  C   -0.000000  -0.000000   0.000013   0.000118  -0.006354  -0.185988
    16  C    0.000000   0.000000  -0.000007  -0.000501   0.027508   0.042883
    17  C   -0.000000   0.000011   0.001182   0.022736  -0.027757   0.103013
    18  C    0.000000  -0.000004  -0.000549  -0.001943  -0.150181  -0.031075
    19  C    0.000000  -0.000000   0.000000   0.000086  -0.001290   0.018923
    20  C   -0.000000   0.000000  -0.000001  -0.000000  -0.000547   0.000886
    21  C   -0.000000   0.000000   0.000009   0.000000   0.001035  -0.000499
    22  C   -0.000000   0.000002   0.000118  -0.000560   0.021000  -0.001795
    23  C   -0.000003   0.000080  -0.006043   0.027294  -0.034472  -0.143850
    24  C    0.000078  -0.001296  -0.183134   0.030327   0.066687  -0.036618
    25  C   -0.004027   0.028691   0.010520  -0.163527   0.020874   0.027357
    26  C   -0.139879   0.028816   0.010859   0.032574  -0.167435  -0.005138
    27  H   -0.000544   0.000010  -0.000000   0.000000   0.000000  -0.000000
    28  H    0.000030  -0.000001   0.000008  -0.000000   0.000000   0.000000
    29  H   -0.000261  -0.000026  -0.001755   0.000020  -0.000014  -0.000001
    30  H   -0.022614   0.001167  -0.000088  -0.000001   0.000000  -0.000000
    31  H    0.443217  -0.078522   0.016661  -0.000642   0.000010   0.000000
    32  H   -0.081157   0.439940  -0.083545  -0.024201   0.000858  -0.000042
    33  H    0.001030  -0.021165  -0.089277   0.421262  -0.050125  -0.048110
    34  H   -0.000001  -0.000083   0.002931   0.012551  -0.051696  -0.040053
    35  H    0.000000  -0.000000  -0.000002   0.000003  -0.000284   0.015719
    36  H    0.000000   0.000000  -0.000000  -0.000000   0.000043  -0.001423
    37  H   -0.000000   0.000000  -0.000000   0.000004  -0.000072   0.021697
    38  H    0.000000  -0.000000   0.000000   0.000000  -0.000024  -0.002010
    39  H    0.000000  -0.000000   0.000000   0.000000   0.000000   0.000007
    40  H    0.000000   0.000000   0.000000  -0.000000   0.000008  -0.000000
    41  H   -0.000000  -0.000000  -0.000065   0.000046  -0.002630  -0.000000
    42  H   -0.000008  -0.000476   0.023011  -0.002587   0.022578  -0.000101
              13         14         15         16         17         18
     1  C   -0.000000  -0.000000   0.000000  -0.000000   0.000000   0.000000
     2  C    0.000000   0.000000  -0.000000   0.000000  -0.000000  -0.000000
     3  C    0.000000   0.000000  -0.000000   0.000000  -0.000000   0.000001
     4  C    0.000001   0.000000   0.000000  -0.000000  -0.000004   0.000011
     5  C   -0.000000  -0.000000   0.000000   0.000000   0.000000  -0.000000
     6  C    0.000000   0.000000  -0.000000   0.000000   0.000000   0.000000
     7  C    0.000001   0.000000  -0.000000   0.000000  -0.000000   0.000000
     8  C   -0.000067  -0.000001  -0.000000   0.000000   0.000011  -0.000004
     9  C    0.000445  -0.000183   0.000013  -0.000007   0.001182  -0.000549
    10  C   -0.027126   0.000159   0.000118  -0.000501   0.022736  -0.001943
    11  C   -0.153737   0.029246  -0.006354   0.027508  -0.027757  -0.150181
    12  C    0.246680   0.143518  -0.185988   0.042883   0.103013  -0.031075
    13  C    5.455381   0.216283   0.157792  -0.181574   0.034716   0.028167
    14  C    0.216283   5.239217   0.148438   0.158540  -0.187529  -0.006303
    15  C    0.157792   0.148438   5.236277   0.214327   0.146279   0.029208
    16  C   -0.181574   0.158540   0.214327   5.454029   0.240580  -0.153605
    17  C    0.034716  -0.187529   0.146279   0.240580   5.712939   0.200763
    18  C    0.028167  -0.006303   0.029208  -0.153605   0.200763   5.707341
    19  C   -0.000458   0.000057   0.000629  -0.024610  -0.153273   0.241889
    20  C   -0.000004   0.000011  -0.000147   0.000643   0.029102   0.145159
    21  C    0.000000  -0.000001   0.000011   0.000051  -0.006144  -0.185499
    22  C    0.000075  -0.000000  -0.000003  -0.000435   0.028116   0.033281
    23  C   -0.001755  -0.000518   0.000908   0.018847  -0.031207   0.107906
    24  C    0.020297   0.001140  -0.000574  -0.001275  -0.148528  -0.027287
    25  C   -0.000465   0.000001  -0.000001   0.000081  -0.002425   0.023330
    26  C    0.000112   0.000008  -0.000001   0.000001  -0.000515   0.001223
    27  H    0.000000  -0.000000  -0.000000   0.000000   0.000000  -0.000000
    28  H   -0.000000   0.000000   0.000000  -0.000000  -0.000000  -0.000000
    29  H   -0.000000  -0.000000  -0.000000   0.000000   0.000000  -0.000001
    30  H    0.000000  -0.000000   0.000000  -0.000000   0.000000  -0.000000
    31  H   -0.000000  -0.000000   0.000000  -0.000000   0.000000  -0.000000
    32  H    0.000008  -0.000001   0.000000  -0.000000   0.000001  -0.000000
    33  H    0.012710   0.001809  -0.000109   0.000057  -0.001816  -0.000050
    34  H    0.418782  -0.087185   0.017558  -0.002472   0.021979  -0.000075
    35  H   -0.075707   0.437093  -0.088084   0.015833  -0.001423   0.000042
    36  H    0.015840  -0.088242   0.437471  -0.075973   0.015757  -0.000291
    37  H   -0.002473   0.017716  -0.086859   0.422009  -0.044294  -0.048843
    38  H    0.000065  -0.000124   0.002018   0.011163  -0.048891  -0.044350
    39  H   -0.000000   0.000000  -0.000001   0.000004  -0.000292   0.015773
    40  H    0.000000   0.000000  -0.000000  -0.000000   0.000042  -0.001429
    41  H    0.000001   0.000000  -0.000000   0.000005  -0.000089   0.021919
    42  H    0.000008  -0.000000   0.000000  -0.000000  -0.000051  -0.001866
              19         20         21         22         23         24
     1  C    0.000000   0.000000  -0.000000   0.000000   0.000000   0.000005
     2  C    0.000000  -0.000000   0.000000   0.000000  -0.000002  -0.000073
     3  C   -0.000000   0.000000  -0.000000   0.000003  -0.000071  -0.000136
     4  C    0.000000   0.000000  -0.000003  -0.000115   0.000134   0.020756
     5  C    0.000000   0.000000  -0.000000   0.000001   0.000008   0.000522
     6  C   -0.000000   0.000000   0.000000  -0.000000   0.000000  -0.000003
     7  C    0.000000  -0.000000  -0.000000  -0.000000  -0.000003   0.000078
     8  C   -0.000000   0.000000   0.000000   0.000002   0.000080  -0.001296
     9  C    0.000000  -0.000001   0.000009   0.000118  -0.006043  -0.183134
    10  C    0.000086  -0.000000   0.000000  -0.000560   0.027294   0.030327
    11  C   -0.001290  -0.000547   0.001035   0.021000  -0.034472   0.066687
    12  C    0.018923   0.000886  -0.000499  -0.001795  -0.143850  -0.036618
    13  C   -0.000458  -0.000004   0.000000   0.000075  -0.001755   0.020297
    14  C    0.000057   0.000011  -0.000001  -0.000000  -0.000518   0.001140
    15  C    0.000629  -0.000147   0.000011  -0.000003   0.000908  -0.000574
    16  C   -0.024610   0.000643   0.000051  -0.000435   0.018847  -0.001275
    17  C   -0.153273   0.029102  -0.006144   0.028116  -0.031207  -0.148528
    18  C    0.241889   0.145159  -0.185499   0.033281   0.107906  -0.027287
    19  C    5.453638   0.215450   0.157252  -0.181120   0.041684   0.027259
    20  C    0.215450   5.234017   0.151067   0.156144  -0.184535  -0.006145
    21  C    0.157252   0.151067   5.234627   0.221278   0.140648   0.028098
    22  C   -0.181120   0.156144   0.221278   5.451152   0.243911  -0.150673
    23  C    0.041684  -0.184535   0.140648   0.243911   5.688612   0.210509
    24  C    0.027259  -0.006145   0.028098  -0.150673   0.210509   5.677726
    25  C   -0.000506   0.000127   0.000136  -0.028166  -0.144915   0.289246
    26  C   -0.000007   0.000012  -0.000154   0.000231   0.029154   0.116109
    27  H    0.000000  -0.000000   0.000000   0.000000  -0.000000  -0.000000
    28  H    0.000000  -0.000000   0.000000  -0.000000  -0.000000  -0.000001
    29  H    0.000000   0.000000   0.000002   0.000061  -0.000065   0.001813
    30  H    0.000000   0.000000   0.000000   0.000000   0.000000  -0.000000
    31  H    0.000000  -0.000000   0.000000   0.000000  -0.000000  -0.000002
    32  H   -0.000000  -0.000000   0.000000   0.000000  -0.000000  -0.000029
    33  H   -0.000000   0.000000  -0.000000   0.000008  -0.000109   0.022980
    34  H    0.000005  -0.000000   0.000000   0.000000  -0.000009  -0.002556
    35  H   -0.000000  -0.000000   0.000000   0.000000  -0.000000   0.000008
    36  H    0.000004  -0.000001   0.000000  -0.000000   0.000007   0.000000
    37  H    0.011204   0.002012  -0.000123   0.000063  -0.002024  -0.000017
    38  H    0.422154  -0.086710   0.017708  -0.002466   0.021610  -0.000070
    39  H   -0.076107   0.437546  -0.088277   0.015878  -0.001421   0.000042
    40  H    0.015853  -0.088058   0.436866  -0.075643   0.015733  -0.000281
    41  H   -0.002447   0.017545  -0.085905   0.417324  -0.040311  -0.051135
    42  H    0.000061  -0.000111   0.001663   0.013231  -0.048148  -0.050507
              25         26         27         28         29         30
     1  C    0.000017  -0.004042   0.436416  -0.085723   0.015565  -0.083289
     2  C    0.000337   0.021015  -0.084225   0.435699  -0.079717   0.016235
     3  C   -0.033466  -0.141159   0.015183  -0.074855   0.415190  -0.002270
     4  C   -0.146238   0.206302  -0.001194   0.015750  -0.048023   0.017009
     5  C    0.024506   0.013889   0.015722  -0.001667   0.019023  -0.080018
     6  C   -0.000283   0.026111  -0.078982   0.015551  -0.001875   0.441032
     7  C   -0.004027  -0.139879  -0.000544   0.000030  -0.000261  -0.022614
     8  C    0.028691   0.028816   0.000010  -0.000001  -0.000026   0.001167
     9  C    0.010520   0.010859  -0.000000   0.000008  -0.001755  -0.000088
    10  C   -0.163527   0.032574   0.000000  -0.000000   0.000020  -0.000001
    11  C    0.020874  -0.167435   0.000000   0.000000  -0.000014   0.000000
    12  C    0.027357  -0.005138  -0.000000   0.000000  -0.000001  -0.000000
    13  C   -0.000465   0.000112   0.000000  -0.000000  -0.000000   0.000000
    14  C    0.000001   0.000008  -0.000000   0.000000  -0.000000  -0.000000
    15  C   -0.000001  -0.000001  -0.000000   0.000000  -0.000000   0.000000
    16  C    0.000081   0.000001   0.000000  -0.000000   0.000000  -0.000000
    17  C   -0.002425  -0.000515   0.000000  -0.000000   0.000000   0.000000
    18  C    0.023330   0.001223  -0.000000  -0.000000  -0.000001  -0.000000
    19  C   -0.000506  -0.000007   0.000000   0.000000   0.000000   0.000000
    20  C    0.000127   0.000012  -0.000000  -0.000000   0.000000   0.000000
    21  C    0.000136  -0.000154   0.000000   0.000000   0.000002   0.000000
    22  C   -0.028166   0.000231   0.000000  -0.000000   0.000061   0.000000
    23  C   -0.144915   0.029154  -0.000000  -0.000000  -0.000065   0.000000
    24  C    0.289246   0.116109  -0.000000  -0.000001   0.001813  -0.000000
    25  C    5.736250   0.264212  -0.000000  -0.000004   0.010813   0.000009
    26  C    0.264212   5.568743   0.000054  -0.000293  -0.039948  -0.000154
    27  H   -0.000000   0.000054   0.671538  -0.012339  -0.000354  -0.012540
    28  H   -0.000004  -0.000293  -0.012339   0.671147  -0.013409  -0.000339
    29  H    0.010813  -0.039948  -0.000354  -0.013409   0.677408   0.000028
    30  H    0.000009  -0.000154  -0.012540  -0.000339   0.000028   0.678157
    31  H    0.000068  -0.001500  -0.000019  -0.000001   0.000011   0.006558
    32  H   -0.000372   0.017599  -0.000000   0.000000   0.000000  -0.000020
    33  H   -0.003234   0.020744  -0.000000   0.000000   0.000001  -0.000000
    34  H    0.000051  -0.000061   0.000000   0.000000  -0.000000   0.000000
    35  H   -0.000000   0.000000   0.000000   0.000000   0.000000  -0.000000
    36  H    0.000000   0.000000  -0.000000   0.000000   0.000000  -0.000000
    37  H    0.000000   0.000000  -0.000000  -0.000000  -0.000000   0.000000
    38  H    0.000004  -0.000000   0.000000   0.000000  -0.000000  -0.000000
    39  H   -0.000000  -0.000000   0.000000   0.000000  -0.000000   0.000000
    40  H    0.000000  -0.000002   0.000000   0.000000  -0.000000  -0.000000
    41  H    0.013135   0.003088  -0.000000  -0.000001   0.000119   0.000000
    42  H    0.395326  -0.058958  -0.000000   0.000037   0.001705   0.000000
              31         32         33         34         35         36
     1  C    0.001030   0.000013   0.000000  -0.000000   0.000000   0.000000
     2  C   -0.000068  -0.000002  -0.000000   0.000000   0.000000  -0.000000
     3  C   -0.000309   0.000056   0.000013  -0.000000   0.000000   0.000000
     4  C    0.015833  -0.001742  -0.000297  -0.000001   0.000000  -0.000000
     5  C   -0.088404   0.016793  -0.000051   0.000000  -0.000000  -0.000000
     6  C   -0.020060  -0.000576  -0.000002   0.000000  -0.000000  -0.000000
     7  C    0.443217  -0.081157   0.001030  -0.000001   0.000000   0.000000
     8  C   -0.078522   0.439940  -0.021165  -0.000083  -0.000000   0.000000
     9  C    0.016661  -0.083545  -0.089277   0.002931  -0.000002  -0.000000
    10  C   -0.000642  -0.024201   0.421262   0.012551   0.000003  -0.000000
    11  C    0.000010   0.000858  -0.050125  -0.051696  -0.000284   0.000043
    12  C    0.000000  -0.000042  -0.048110  -0.040053   0.015719  -0.001423
    13  C   -0.000000   0.000008   0.012710   0.418782  -0.075707   0.015840
    14  C   -0.000000  -0.000001   0.001809  -0.087185   0.437093  -0.088242
    15  C    0.000000   0.000000  -0.000109   0.017558  -0.088084   0.437471
    16  C   -0.000000  -0.000000   0.000057  -0.002472   0.015833  -0.075973
    17  C    0.000000   0.000001  -0.001816   0.021979  -0.001423   0.015757
[...]
 951,0.00001536,-0.00000621,0.00011974,0.00000503,-0.00001422,-0.000011
 50,0.00011393,-0.00007525,-0.00039153,-0.00025291,0.00058711,-0.000002
 85,0.00029391,-0.00072376,-0.00316589,-0.00451022,-0.00147554,0.003671
 92,-0.00246678,0.00285039,-0.03900717,0.00498766,0.00149185,0.00506722
 ,-0.00016612,0.00208109,0.00709998,-0.00003323,0.00009364,-0.00046808,
 -0.00069821,0.00171038,0.00544593,-0.00021741,-0.00008670,0.00047838,-
 0.00002758,0.00006766,-0.00005816,-0.00001112,-0.00001671,-0.00001365,
 -0.00000014,0.00000006,0.00000030,-0.00000018,0.00000014,0.00000097,0.
 00000027,0.00000105,0.00000023,-0.00000035,0.00000009,0.00000056,-0.00
 000011,0.00000016,0.00000093,-0.00000052,0.00000136,0.00000095,-0.0000
 0476,0.00000420,-0.00000937,0.00000094,-0.00000178,0.00001616,0.000005
 34,0.00000533,0.00009180,-0.00000115,0.00000052,0.00001798,0.00026500,
 0.00082220,0.00140565,0.00226034,-0.00615970,0.02531219,-0.00000699,-0
 .00000088,-0.00000014,-0.00000054,0.00001086,-0.00000177,0.00000111,-0
 .00002038,0.00000368,0.00001542,0.00001076,-0.00000144,-0.00000705,0.0
 0000760,-0.00000148,-0.00000068,-0.00000577,0.00000100,-0.00001187,0.0
 0000012,-0.00000050,0.00001457,-0.00001271,0.00000224,-0.00003180,0.00
 000693,-0.00000211,0.00003720,0.00001201,-0.00000306,-0.00010195,0.000
 00566,-0.00000930,0.00002047,-0.00010010,0.00003452,0.00003640,-0.0000
 3471,0.00000861,0.00002758,0.00002187,-0.00000366,-0.00004296,0.000016
 53,-0.00000392,0.00001868,0.00000844,-0.00000617,0.00038508,-0.0001573
 6,0.00003467,0.00042421,-0.00221554,0.00005613,0.00935317,-0.00803378,
 0.00164783,-0.19616705,0.13587836,-0.03068434,-0.01521184,0.02359231,-
 0.00493395,-0.00462948,-0.00307624,0.00005190,-0.00009138,-0.00102983,
 0.00020222,0.00003192,0.00012928,0.00002036,-0.00008667,-0.00004879,0.
 00000183,0.00005544,0.00004878,-0.00000277,-0.00000510,0.00000030,-0.0
 0000032,-0.00000112,-0.00000397,0.00000054,0.00001087,0.00001027,-0.00
 000145,-0.00000266,0.00000324,-0.00000068,-0.00000458,0.00000198,-0.00
 000057,0.00000001,0.00000576,-0.00000106,-0.00000347,0.00000987,-0.000
 00174,-0.00000608,-0.00001010,0.00000173,0.00000016,0.00000506,-0.0000
 0094,0.00000524,0.00000011,0.00000031,-0.00001858,0.00002739,-0.000006
 40,0.00097391,0.00038522,0.00018679,0.20442497,0.00000538,0.00000523,-
 0.00000073,0.00000497,-0.00000143,-0.00000006,0.00000836,-0.00000498,0
 .00000090,-0.00000383,-0.00000714,0.00000208,0.00000831,0.00000129,-0.
 00000044,-0.00000589,0.00000568,-0.00000138,0.00000237,-0.00001184,0.0
 0000195,0.00000900,0.00001839,-0.00000040,-0.00002758,-0.00001067,-0.0
 0000138,0.00003959,0.00000720,0.00001077,-0.00012312,-0.00002150,0.000
 01284,-0.00024374,-0.00037937,-0.00000807,0.00011908,-0.00006111,0.000
 01220,0.00001158,-0.00003324,0.00001056,-0.00002801,0.00002967,-0.0000
 0979,0.00002346,-0.00005200,0.00003159,0.00137138,-0.00017751,0.000130
 43,-0.00319205,-0.00361002,0.00183422,0.02256790,-0.01595191,0.0044195
 2,0.13547523,-0.19295860,0.03305099,-0.00735376,0.00916858,-0.00130729
 ,-0.00180285,0.00082333,0.00084613,-0.00084254,-0.00024142,-0.00010259
 ,-0.00003391,0.00013568,-0.00018582,0.00003620,-0.00003144,0.00001784,
 0.00001120,0.00003652,-0.00001835,0.00000310,0.00000097,0.00000012,0.0
 0000166,0.00000307,-0.00000009,-0.00000154,-0.00000137,0.00000076,0.00
 000182,-0.00000250,0.00000051,0.00000420,-0.00000097,0.00000046,-0.000
 00248,-0.00000204,0.00000047,-0.00000510,-0.00000130,-0.00000049,-0.00
 001052,-0.00005326,0.00000780,-0.00000393,-0.00000945,0.00000174,-0.00
 001748,-0.00002258,0.00000279,-0.00001028,0.00002889,-0.00000229,-0.00
 007174,0.00100009,-0.00099328,-0.14624729,0.20158127,-0.00000123,-0.00
 000100,-0.00000022,-0.00000075,0.00000020,-0.00000315,-0.00000131,-0.0
 0000039,-0.00000195,0.00000109,0.00000273,0.00000542,-0.00000161,-0.00
 000047,-0.00000339,0.00000102,-0.00000137,-0.00000044,-0.00000089,0.00
 000184,-0.00000161,-0.00000153,-0.00000137,0.00001392,0.00000388,0.000
 00016,-0.00001139,-0.00000785,0.00000954,0.00005702,0.00001306,0.00001
 859,0.00008148,0.00005946,-0.00000165,-0.00036019,-0.00001809,0.000005
 33,-0.00002321,-0.00000188,0.00001102,0.00002262,0.00000382,-0.0000078
 0,-0.00001799,-0.00000877,0.00003091,0.00011812,-0.00023076,0.00006210
 ,0.00019959,0.00022568,0.00187786,0.00745979,-0.00366545,0.00305190,0.
 00299959,-0.03061435,0.03306900,-0.04458310,0.00043913,0.00007572,0.00
 353860,-0.00016920,0.00078923,0.00601607,0.00016971,-0.00011096,-0.000
 58854,0.00004869,-0.00017853,-0.00089264,-0.00001293,0.00001404,0.0000
 5898,0.00000375,-0.00001667,-0.00006900,-0.00000081,0.,0.00000083,-0.0
 0000043,-0.00000034,0.00000216,0.00000060,0.00000129,0.00000320,-0.000
 00043,0.00000058,-0.00000012,-0.00000096,0.00000036,0.00000048,0.00000
 037,0.00000084,0.00000118,0.00000086,0.00000018,-0.00000279,0.00000181
 ,0.00000782,-0.00000691,0.00000062,0.00000214,0.00000125,0.00000336,0.
 00000357,-0.00000250,0.00000014,-0.00000061,0.00001843,0.00026613,-0.0
 0097286,-0.00452140,0.03337729,-0.03706362,0.03368485,-0.00000428,-0.0
 0000579,0.00000085,-0.00000047,-0.00000175,0.00000058,-0.00001626,0.00
 001655,-0.00000335,-0.00000243,-0.00000098,0.00000036,-0.00000478,-0.0
 0001245,0.00000194,0.00000522,-0.00000019,0.00000035,0.00000442,0.0000
 0968,-0.00000138,-0.00000739,-0.00000248,0.00000011,0.00003701,0.00000
 518,-0.00000053,0.00004400,0.00010317,-0.00001519,-0.00021559,0.000176
 94,-0.00002348,-0.00012922,-0.00004962,-0.00000119,0.00004161,0.000000
 19,-0.00000139,-0.00002304,-0.00001074,0.00000147,0.00007891,-0.000020
 91,0.00001080,-0.00009199,0.00002404,-0.00001099,0.00010787,-0.0001503
 3,0.00007253,-0.00091123,0.00066174,-0.00012817,-0.00544328,-0.0003205
 5,-0.00046335,-0.00285209,-0.03012291,0.00494430,-0.08168413,-0.075542
 51,0.01114196,0.00966624,0.02193760,-0.00354128,-0.00276784,0.00267233
 ,-0.00093590,0.00079260,0.00067514,-0.00009189,-0.00000536,0.00003099,
 -0.00001154,-0.00001096,-0.00004545,0.00000809,0.00000167,-0.00000058,
 0.00000009,-0.00000643,-0.00000076,-0.00000034,0.00000147,0.00000375,-
 0.00000123,0.00000028,-0.00000189,0.00000029,0.00000041,-0.00000132,0.
 00000017,0.00000021,-0.00000203,0.00000029,-0.00002514,0.00002539,-0.0
 0000475,-0.00000005,-0.00000929,0.00000161,0.00000581,-0.00000790,0.00
 000073,-0.00000328,-0.00000022,-0.00000018,0.00010242,0.00000319,-0.00
 000010,-0.00032177,-0.00134147,0.00021301,0.00134468,0.00070392,0.0000
 9584,0.08118083,0.00001394,0.00000555,-0.00000050,0.00000054,0.0000020
 8,-0.00000150,0.00003600,-0.00001029,0.00000243,-0.00002851,-0.0000279
 1,0.00000239,0.00000789,-0.00000919,0.00000200,-0.00000704,0.00001703,
 -0.00000361,0.00001909,-0.00003183,0.00000598,0.00000625,0.00004337,-0
 .00000730,-0.00000614,-0.00001848,0.00000794,-0.00005304,-0.00009103,0
 .00001050,0.00032510,-0.00014034,-0.00002666,0.00005118,0.00000389,0.0
 0001727,-0.00000735,-0.00000237,0.00001257,0.00000200,-0.00001227,-0.0
 0000023,0.00000048,0.00000698,-0.00001536,-0.00005063,-0.00003169,0.00
 001375,0.00000744,0.00007319,-0.00017402,0.00047988,0.00057604,-0.0001
 8521,-0.00159925,0.00162743,0.00071725,0.00082398,-0.00319959,0.001207
 73,-0.07514781,-0.30740881,0.04350360,-0.00863037,-0.01627280,0.003078
 05,0.00364102,-0.00041768,0.00158809,-0.00085367,-0.00055569,0.0000975
 3,0.00002028,-0.00004619,0.00003194,-0.00001779,0.00002968,-0.00000862
 ,0.00000550,0.00000168,0.00000029,0.00001056,0.00000771,-0.00000015,-0
 .00001344,-0.00000836,0.00000334,0.00000292,-0.00000261,0.00000078,0.0
 0000697,-0.00000004,0.00000062,-0.00000222,-0.00000551,0.00000115,0.00
 002541,-0.00003305,0.00000384,0.00000534,-0.00000469,0.00000106,-0.000
 00197,-0.00000876,0.00000495,-0.00000907,-0.00000624,0.00000095,0.0000
 2719,0.00000589,0.00001621,0.00008584,-0.00026054,0.00007054,-0.000265
 33,0.00053616,-0.00071865,0.08095397,0.32481948,-0.00000257,-0.0000013
 8,-0.00000080,0.00000018,-0.00000160,-0.00000639,-0.00000673,0.0000015
 6,-0.00000613,0.00000515,0.00000362,-0.00000718,-0.00000160,0.00000109
 ,0.00000003,0.00000154,-0.00000331,-0.00000133,-0.00000302,0.00000556,
 -0.00000338,-0.00000140,-0.00000769,0.00000100,0.00000143,0.00000845,0
 .00002745,0.00001193,0.00001748,-0.00001941,-0.00004921,-0.00003329,-0
 .00037402,-0.00001869,0.00001276,0.00008710,-0.00000008,0.00001291,0.0
 0006969,-0.00000075,-0.00000080,-0.00001399,0.00000709,-0.00001631,-0.
 00007844,0.00000198,0.00001708,0.00005764,0.00004514,-0.00018107,-0.00
 089750,-0.00009660,-0.00017708,-0.00058775,-0.00024134,0.00077440,0.00
 602481,-0.00042892,-0.00017532,0.00355548,0.01107343,0.04348596,-0.044
 56376,0.00176615,0.00444416,0.00298385,-0.00110409,0.00154480,0.007474
 12,0.00017355,0.00016585,0.00020470,-0.00000968,0.00003241,0.00012646,
 0.00000329,-0.00000986,-0.00001353,-0.00000097,0.00000002,0.00000188,-
 0.00000230,-0.00000066,0.00000413,0.00000176,0.00000411,0.00001368,-0.
 00000054,0.00000057,0.00000101,-0.00000127,0.00000025,0.00000165,0.000
 00032,0.00000116,0.00000152,-0.00000475,0.00000384,-0.00001835,-0.0000
 0093,0.00000041,-0.00000005,-0.00000030,0.00000468,0.00001940,0.000001
 36,0.00000135,0.00000139,-0.00000427,0.00001514,0.00008943,-0.00003481
 ,0.00000675,0.00012092,0.00026413,-0.00067533,-0.00340551,-0.01157970,
 -0.04830414,0.03364534,0.00000713,0.00001013,-0.00000121,0.00002456,-0
 .00002902,0.00000694,0.00003348,0.00002259,-0.00000211,0.00005838,0.00
 000846,0.00000099,-0.00002144,-0.00002049,0.00000287,-0.00000701,0.000
 00913,-0.00000175,0.00002252,-0.00002982,0.00000613,0.00004446,0.00007
 646,-0.00001381,-0.00013473,0.00007259,-0.00001768,-0.00004768,0.00003
 689,-0.00001226,0.00014409,-0.00016340,0.00003569,-0.00000719,0.000074
 34,-0.00000064,0.00001143,0.00003650,-0.00000887,0.00000055,-0.0000454
 1,0.00000835,-0.00001187,0.00001604,-0.00000291,0.00002693,-0.00015160
 ,0.00003050,-0.00024607,0.00022567,-0.00007121,0.00143765,-0.00141451,
 0.00005094,0.00083665,0.00045179,-0.00002101,-0.00109896,0.00406778,-0
 .00108866,-0.01805473,-0.00836302,0.00041476,-0.31805667,-0.07471366,0
 .00046755,-0.00473857,-0.00206377,-0.00000869,-0.00222040,0.00024377,0
 .00000099,-0.00175758,0.00329189,-0.00065049,0.00040977,0.00038680,-0.
 00003488,0.00000313,-0.00000210,0.00000035,0.00000139,0.00000456,-0.00
 000142,0.00002974,-0.00003564,0.00000734,-0.00000142,-0.00000060,0.000
 00007,0.00000038,0.00000128,-0.00000024,-0.00001759,0.00001557,-0.0000
 0356,0.00000486,-0.00002312,0.00000315,0.00000422,-0.00002598,0.000005
 26,0.00000076,-0.00000872,0.00000156,-0.00001060,-0.00001743,0.0000027
 9,0.00000940,0.00002267,-0.00000433,-0.00010169,-0.00002461,0.00004470
 ,-0.00084740,-0.00040100,0.00002657,0.00111407,0.00013902,0.00023578,0
 .34406382,-0.00002988,-0.00002463,0.00000204,-0.00003617,0.00008225,-0
 .00001903,-0.00000362,-0.00011176,0.00001802,0.00003570,-0.00002730,0.
 00000691,-0.00004207,-0.00005477,0.00000660,0.00000853,0.00000724,-0.0
 0000144,0.00002403,-0.00000407,0.00000201,0.00004700,0.00006297,0.0000
 0096,-0.00007529,0.00009192,-0.00002301,0.00004440,0.00020514,-0.00001
 915,-0.00004134,-0.00014715,0.00002029,-0.00015494,0.00014604,-0.00008
 117,0.00010905,0.00003186,0.00001117,-0.00000682,-0.00004093,0.0000050
 9,-0.00009533,0.00002791,-0.00001070,0.00006651,-0.00049139,0.00007672
 ,-0.00151273,0.00037613,-0.00005121,0.00009926,-0.00514248,0.00190319,
 0.00040790,-0.00088428,0.00009389,0.00270184,-0.00249486,0.00184869,0.
 02349200,0.00914846,0.00035661,-0.07502604,-0.07821605,0.00358592,-0.0
 2886818,-0.00169352,-0.00039295,-0.00005709,0.00112305,-0.00075136,-0.
 00031219,-0.00267931,0.00045274,0.00065696,0.00043124,-0.00009975,-0.0
 0001412,0.00000490,-0.00000088,-0.00001468,-0.00001128,0.00000399,0.00
 007785,0.00010477,-0.00001404,-0.00001120,0.00000610,-0.00000167,-0.00
 001090,0.00000748,-0.00000165,-0.00001524,0.00002819,-0.00000530,-0.00
 000519,0.00002611,-0.00000058,-0.00000962,-0.00004700,0.00000557,0.000
 00656,-0.00000521,0.00000114,-0.00001736,-0.00004931,0.00000685,0.0000
 0180,0.00002321,-0.00000079,-0.00004744,0.00003276,-0.00018251,0.00102
 568,0.00025223,0.00002219,-0.00031132,0.00085019,-0.00097790,0.0747760
 7,0.08020094,0.00000574,0.00000383,-0.00000561,0.00000818,-0.00001871,
 -0.00001443,0.00000244,0.00001920,-0.00001024,-0.00000374,0.00000569,0
 .00000216,0.00000661,0.00000757,-0.00000694,-0.00000165,-0.00000141,-0
 .00000309,-0.00000322,-0.00000040,0.00000122,-0.00000869,0.00000227,0.
 00005560,0.00000800,-0.00001640,-0.00001804,-0.00001357,-0.00001949,0.
 00008619,0.00001450,0.00001484,-0.00002157,0.00003916,-0.00007093,-0.0
 0026753,-0.00002147,0.00000792,0.00006577,0.00000165,0.00000336,-0.000
 01038,0.00001643,-0.00000572,-0.00000743,-0.00000737,0.00006697,-0.000
 07860,0.00023062,0.00002648,0.00047628,-0.00021189,0.00183554,0.005465
 19,-0.00001339,0.00009585,-0.00046575,-0.00085150,0.00190974,0.0070875
 5,-0.00511614,-0.00106703,0.00511218,0.00052179,0.00359988,-0.03885333
 ,0.00464528,0.00080496,0.00354168,0.00005323,-0.00073791,-0.00305917,-
 0.00002473,0.00061381,-0.00009910,-0.00008179,-0.00011183,-0.00029663,
 0.00000244,-0.00000034,0.00000363,0.00000192,0.00000485,0.00001472,-0.
 00001236,-0.00001911,0.00000666,0.00000191,-0.00000120,-0.00000033,0.0
 0000187,-0.00000111,0.00000105,0.00000179,-0.00000392,0.00000237,0.000
 00004,-0.00000138,0.00002438,0.00000242,0.00000484,-0.00001319,-0.0000
 0109,0.00000046,-0.00000044,0.00000278,0.00000684,-0.00000647,-0.00000
 071,0.00000014,0.00001815,0.00004866,-0.00018149,-0.00097252,-0.000221
 14,-0.00004157,0.00011338,0.00031397,-0.00095777,-0.00452151,0.0013258
 0,-0.00643554,0.02506520,0.00004636,-0.00004452,0.00000981,-0.00001862
 ,-0.00035465,0.00007876,-0.00301922,0.00137020,-0.00037316,0.00022232,
 -0.00107581,0.00035937,0.00011144,0.00001492,0.00000626,0.00014468,-0.
 00010365,0.00001731,0.00010059,0.00006703,0.00000380,0.00064612,0.0008
 4093,-0.00012557,-0.00317679,0.00248108,-0.00085177,-0.00075695,0.0004
 3538,-0.00009589,-0.00535732,0.00035292,-0.00058774,0.00031005,-0.0014
 8023,0.00025465,-0.00047323,0.00007355,-0.00003200,0.00002370,-0.00008
 414,0.00001543,-0.00004690,-0.00001181,0.00000016,0.00003915,0.0001167
 8,-0.00002229,0.00014196,-0.00017613,0.00005286,-0.00008903,-0.0000316
 8,0.00000268,0.00021259,0.00002129,-0.00000153,0.00009807,-0.00003536,
 0.00001056,0.00049042,0.00057440,-0.00005651,-0.00301037,-0.00010209,-
 0.00012141,0.00121014,-0.00021705,0.00026100,-0.00364058,-0.02999803,0
 .00483460,-0.07856476,-0.07486885,0.01123528,0.01105057,0.02123597,-0.
 00342964,0.00004434,-0.00004288,0.00000572,0.00001473,0.00000182,0.000
 00001,-0.00317047,-0.00111022,-0.00001262,0.00003154,-0.00001612,0.000
 00381,-0.00002262,-0.00003752,0.00000382,-0.00021851,0.00024448,-0.000
 05291,0.00001543,-0.00004534,0.00005187,0.00001893,0.00000506,-0.00000
 114,-0.00004843,-0.00001268,0.00000077,-0.00000245,0.00000828,-0.00000
 139,-0.00005039,-0.00000890,-0.00000018,0.00002842,-0.00000740,0.00000
 183,0.00009817,0.00001992,-0.00000364,-0.00000274,-0.00000416,0.000000
 32,-0.00090773,0.00313761,-0.00066279,0.08747743,-0.00014421,0.0000069
 3,-0.00000767,-0.00010161,0.00072636,-0.00020063,-0.00138184,-0.000533
 38,0.00003213,-0.00167230,-0.00078598,-0.00057014,0.00013629,-0.000112
 75,0.00001063,-0.00011024,0.00004431,0.00001516,-0.00002273,-0.0000171
 2,-0.00004055,-0.00078671,-0.00068080,0.00011582,0.00388115,-0.0005866
 5,0.00135930,0.00042946,0.00064005,-0.00014450,-0.00113130,0.00159103,
 0.00078836,0.00018069,-0.00024931,0.00011437,-0.00013247,0.00003828,-0
 .00002002,0.00001205,-0.00001945,0.00000485,-0.00003270,0.00000628,-0.
 00000336,0.00002370,0.00000454,0.00001489,0.00005764,-0.00002483,-0.00
 005501,-0.00017475,0.00007103,-0.00002463,0.00000388,-0.00005524,0.000
 03824,0.00010382,-0.00006867,0.00001642,0.00040179,0.00031549,-0.00011
 957,0.00367915,-0.00183491,0.00050088,0.00021730,-0.00212928,-0.000278
 04,-0.00287516,-0.00413301,0.00140950,-0.07526949,-0.31345059,0.044271
 85,-0.00652618,-0.01835618,0.00381374,-0.00004631,0.00005681,0.0000024
 7,0.00002720,-0.00001394,0.00000492,-0.00134580,0.00160682,-0.00009170
 ,0.00000490,0.00001036,-0.00000003,0.00004211,0.00002641,0.00000383,0.
 00021305,-0.00021688,0.00004990,-0.00003145,-0.00015229,-0.00014322,0.
 00002096,0.00000478,0.00000440,-0.00001478,-0.00000803,-0.00000212,-0.
 00000689,0.00000024,-0.00000094,-0.00001809,0.00000382,-0.00000350,-0.
 00001972,0.00000935,0.00000032,0.00003842,0.00001339,0.00001714,-0.000
 04034,-0.00000034,-0.00000066,0.00354390,-0.00114582,0.00065820,0.0788
 6760,0.33939920,0.00002712,-0.00000322,0.00000161,0.00003482,-0.000211
 94,-0.00036467,0.00010467,0.00015512,-0.00001493,0.00046294,-0.0005434
 9,-0.00352422,-0.00001481,0.00000520,-0.00008820,0.00001846,0.00001546
 ,0.00015814,0.00001938,-0.00003653,-0.00023758,0.00015704,0.00018856,0
 .00016301,-0.00109486,0.00129673,0.00596913,-0.00009487,-0.00014424,-0
 .00028193,-0.00033004,0.00085469,0.00625959,-0.00003373,0.00004014,0.0
 0035442,0.00000377,-0.00001082,-0.00004090,-0.00000127,0.00000055,0.00
 000524,0.00000379,-0.00000242,-0.00000406,-0.00000613,0.00001905,0.000
 08064,0.00001227,-0.00006545,-0.00034456,0.00002752,-0.00001824,-0.000
 02145,0.00000150,0.00003902,0.00015730,-0.00001361,0.00001020,-0.00000
 321,-0.00002654,-0.00011186,-0.00045837,-0.00077793,0.00033189,0.00001
 048,0.00018558,-0.00029746,-0.00372666,0.00012534,0.00019735,0.0046963
 6,0.01130484,0.04428975,-0.04627876,0.00139062,0.00505445,0.00447330,0
 .00000631,0.00000263,0.00008279,-0.00000440,0.00000379,0.00000655,0.00
 002829,-0.00008117,0.00144045,0.00000016,-0.00000097,0.00000909,-0.000
 01000,0.00000027,0.00003713,-0.00004746,0.00005130,0.00000463,0.000049
 46,-0.00014384,-0.00094189,-0.00000390,0.00000368,0.00002388,0.0000011
 4,-0.00000203,-0.00001606,0.00000124,-0.00000026,-0.00000331,0.0000014
 1,-0.00000309,-0.00001111,0.00000397,0.00000087,0.00001627,-0.00000685
 ,0.00001631,0.00009908,0.00000660,0.00000096,0.00000636,-0.00073333,0.
 00064004,0.00158898,-0.01077848,-0.05154097,0.03071743\\0.00000282,0.0
 0000975,-0.00000157,0.00001521,0.00000780,-0.00000068,-0.00000647,0.00
 002497,-0.00000463,-0.00001021,-0.00001285,0.00000177,0.00001352,-0.00
 000335,0.00000119,-0.00000441,-0.00000305,0.00000033,-0.00000787,-0.00
 000520,0.00000055,0.00000667,0.00000730,-0.00000097,0.00001042,0.00000
 056,0.00000037,0.00001276,-0.00000980,0.00000227,0.00002186,0.00004007
 ,-0.00000598,-0.00003512,0.00002073,-0.00000517,0.00001512,-0.00002558
 ,0.00000512,-0.00002920,0.00000722,-0.00000256,0.00000906,-0.00002751,
 0.00000518,-0.00001258,0.00001338,-0.00000289,0.00000518,-0.00003616,0
 .00000651,0.00002550,0.00002826,-0.00000377,-0.00001756,-0.00000915,0.
 00000080,0.00002211,0.00002047,-0.00000257,-0.00002903,0.00001023,-0.0
 0000307,0.00003054,-0.00000264,0.00000182,-0.00004127,-0.00000717,-0.0
 0000060,-0.00000888,-0.00003652,0.00000594,-0.00000726,0.00003183,-0.0
 0000585,0.00001496,-0.00002264,0.00000460,-0.00000496,-0.00000125,0.,0
 .00000166,-0.00000721,0.00000133,0.00001286,-0.00000623,0.00000166,0.0
 0000021,-0.00000242,0.00000043,0.00000440,0.00000541,-0.00000074,-0.00
 001036,0.00000006,-0.00000047,0.00000612,-0.00000213,0.00000064,-0.000
 01037,0.00000470,-0.00000128,-0.00000012,0.00000505,-0.00000088,0.0000
 0474,-0.00000013,0.00000024,-0.00000015,-0.00000983,0.00000170,0.00000
 583,0.00000690,-0.00000094,0.00000420,-0.00000260,0.00000064,-0.000002
 10,-0.00000511,0.00000079,0.00000051,-0.00000150,0.00000028,-0.0000083
 1,-0.00000468,0.00000044\\\@
 The archive entry for this job was punched.


 NOTHING WILL BE ATTEMPTED IF ALL POSSIBLE OBJECTIONS
 MUST FIRST BE OVERCOME.

                               -- THE GOLDEN PRINCIPLE,
                    PAUL DICKSON'S "THE OFFICIAL RULES"
 Job cpu time:       0 days  1 hours 29 minutes  0.0 seconds.
 Elapsed time:       0 days  0 hours 11 minutes  7.6 seconds.
 File lengths (MBytes):  RWF=    772 Int=      0 D2E=      0 Chk=     15 Scr=      1
 Normal termination of Gaussian 16 at Tue Oct  8 21:56:00 2024.
