 Entering Gaussian System, Link 0=g16
 Initial command:
 /opt/g16/l1.exe "/tmp/Gau-1108896.inp" -scrdir="/tmp/"
 Entering Link 1 = /opt/g16/l1.exe PID=   1108898.
  
 Copyright (c) 1988-2019, Gaussian, Inc.  All Rights Reserved.
  
 This is part of the Gaussian(R) 16 program.  It is based on
 the Gaussian(R) 09 system (copyright 2009, Gaussian, Inc.),
 the Gaussian(R) 03 system (copyright 2003, Gaussian, Inc.),
 the Gaussian(R) 98 system (copyright 1998, Gaussian, Inc.),
 the Gaussian(R) 94 system (copyright 1995, Gaussian, Inc.),
 the Gaussian 92(TM) system (copyright 1992, Gaussian, Inc.),
 the Gaussian 90(TM) system (copyright 1990, Gaussian, Inc.),
 the Gaussian 88(TM) system (copyright 1988, Gaussian, Inc.),
 the Gaussian 86(TM) system (copyright 1986, Carnegie Mellon
 University), and the Gaussian 82(TM) system (copyright 1983,
 Carnegie Mellon University). Gaussian is a federally registered
 trademark of Gaussian, Inc.
  
 This software contains proprietary and confidential information,
 including trade secrets, belonging to Gaussian, Inc.
  
 This software is provided under written license and may be
 used, copied, transmitted, or stored only in accord with that
 written license.
  
 The following legend is applicable only to US Government
 contracts under FAR:
  
                    RESTRICTED RIGHTS LEGEND
  
 Use, reproduction and disclosure by the US Government is
 subject to restrictions as set forth in subparagraphs (a)
 and (c) of the Commercial Computer Software - Restricted
 Rights clause in FAR 52.227-19.
  
 Gaussian, Inc.
 340 Quinnipiac St., Bldg. 40, Wallingford CT 06492
  
  
 ---------------------------------------------------------------
 Warning -- This program may not be used in any manner that
 competes with the business of Gaussian, Inc. or will provide
 assistance to any competitor of Gaussian, Inc.  The licensee
 of this program is prohibited from giving any competitor of
 Gaussian, Inc. access to this program.  By using this program,
 the user acknowledges that Gaussian, Inc. is engaged in the
 business of creating and licensing software in the field of
 computational chemistry and represents and warrants to the
 licensee that it is not a competitor of Gaussian, Inc. and that
 it will not use this program in any manner prohibited above.
 ---------------------------------------------------------------
  

 Cite this work as:
 Gaussian 16, Revision C.01,
 M. J. Frisch, G. W. Trucks, H. B. Schlegel, G. E. Scuseria, 
 M. A. Robb, J. R. Cheeseman, G. Scalmani, V. Barone, 
 G. A. Petersson, H. Nakatsuji, X. Li, M. Caricato, A. V. Marenich, 
 J. Bloino, B. G. Janesko, R. Gomperts, B. Mennucci, H. P. Hratchian, 
 J. V. Ortiz, A. F. Izmaylov, J. L. Sonnenberg, D. Williams-Young, 
 F. Ding, F. Lipparini, F. Egidi, J. Goings, B. Peng, A. Petrone, 
 T. Henderson, D. Ranasinghe, V. G. Zakrzewski, J. Gao, N. Rega, 
 G. Zheng, W. Liang, M. Hada, M. Ehara, K. Toyota, R. Fukuda, 
 J. Hasegawa, M. Ishida, T. Nakajima, Y. Honda, O. Kitao, H. Nakai, 
 T. Vreven, K. Throssell, J. A. Montgomery, Jr., J. E. Peralta, 
 F. Ogliaro, M. J. Bearpark, J. J. Heyd, E. N. Brothers, K. N. Kudin, 
 V. N. Staroverov, T. A. Keith, R. Kobayashi, J. Normand, 
 K. Raghavachari, A. P. Rendell, J. C. Burant, S. S. Iyengar, 
 J. Tomasi, M. Cossi, J. M. Millam, M. Klene, C. Adamo, R. Cammi, 
 J. W. Ochterski, R. L. Martin, K. Morokuma, O. Farkas, 
 J. B. Foresman, and D. J. Fox, Gaussian, Inc., Wallingford CT, 2019.
 
 ******************************************
 Gaussian 16:  ES64L-G16RevC.01  3-Jul-2019
                 8-Oct-2024 
 ******************************************
 %nprocshared=8
 Will use up to    8 processors via shared memory.
 %mem=8800MB
 ----------------------------------------------------------------------
 #N opt freq B3LYP/def2SVPP symm=veryloose em=gd3bj scale=0.961 press=0
 .987
 ----------------------------------------------------------------------
 1/18=20,19=15,26=3,38=1,113=-987000,114=961000/1,3;
 2/9=110,12=2,17=2,18=2,40=1/2;
 3/5=43,7=202,11=2,25=1,30=1,71=1,74=-5,124=41/1,2,3;
 4//1;
 5/5=2,38=5/2;
 6/7=2,8=2,9=2,10=2,28=1/1;
 7//1,2,3,16;
 1/18=20,19=15,26=3/3(2);
 2/9=110/2;
 99//99;
 2/9=110/2;
 3/5=43,7=202,11=2,25=1,30=1,71=1,74=-5,124=41/1,2,3;
 4/5=5,16=3,69=1/1;
 5/5=2,38=5/2;
 7//1,2,3,16;
 1/18=20,19=15,26=3/3(-5);
 2/9=110/2;
 6/7=2,8=2,9=2,10=2,19=2,28=1/1;
 99/9=1/99;
 --------------------------------------
 c1cc2ccc3ccc4ccc5cccc6c(c1)c2c3c4c56_2
 --------------------------------------
 Symbolic Z-matrix:
 Charge =  0 Multiplicity = 1
 C                    -0.6606   -3.9025   -0.1145 
 C                    -1.9224   -3.3436    0.0214 
 C                    -2.0727   -1.9566    0.0961 
 C                    -3.3488   -1.3992    0.2332 
 C                    -3.5165   -0.0188    0.3091 
 C                    -2.4108    0.8338    0.2494 
 C                    -2.5791    2.2205    0.3256 
 C                    -1.4776    3.0714    0.2662 
 C                    -0.1856    2.5531    0.1294 
 C                     0.9185    3.4079    0.0699 
 C                     2.2047    2.8916   -0.0663 
 C                     2.4146    1.5105   -0.146 
 C                     3.7116    1.0095   -0.2824 
 C                     3.9268   -0.3581   -0.3619 
 C                     2.8441   -1.2364   -0.3054 
 C                     1.5072   -0.7861   -0.1676 
 C                     0.371    -1.664    -0.1064 
 C                     0.4623   -3.0767   -0.1769 
 C                    -0.9301   -1.113     0.0327 
 C                    -1.11      0.2886    0.1106 
 C                     0.0063    1.1511    0.0504 
 C                     1.3098    0.6177   -0.0881 
 H                    -0.5455   -4.9817   -0.1724 
 H                    -2.7877   -4.0005    0.0686 
 H                    -4.229    -2.0366    0.2826 
 H                    -4.5216    0.383     0.4155 
 H                    -3.5714    2.653     0.4322 
 H                    -1.64      4.1452    0.328 
 H                     0.7889    4.4861    0.1291 
 H                     3.0439    3.5826   -0.1097 
 H                     4.5658    1.6811   -0.328 
 H                     4.9364   -0.7461   -0.4681 
 H                     3.0737   -2.2958   -0.3725 
 H                     1.4236   -3.5708   -0.2835 
 

 GradGradGradGradGradGradGradGradGradGradGradGradGradGradGradGradGradGrad
 Berny optimization.
 Initialization pass.
                           ----------------------------
                           !    Initial Parameters    !
                           ! (Angstroms and Degrees)  !
 --------------------------                            --------------------------
 ! Name  Definition              Value          Derivative Info.                !
 --------------------------------------------------------------------------------
 ! R1    R(1,2)                  1.3867         estimate D2E/DX2                !
 ! R2    R(1,18)                 1.3953         estimate D2E/DX2                !
 ! R3    R(1,23)                 1.0869         estimate D2E/DX2                !
 ! R4    R(2,3)                  1.3971         estimate D2E/DX2                !
 ! R5    R(2,24)                 1.0874         estimate D2E/DX2                !
 ! R6    R(3,4)                  1.3993         estimate D2E/DX2                !
 ! R7    R(3,19)                 1.4217         estimate D2E/DX2                !
 ! R8    R(4,5)                  1.3926         estimate D2E/DX2                !
 ! R9    R(4,25)                 1.0879         estimate D2E/DX2                !
 ! R10   R(5,6)                  1.3975         estimate D2E/DX2                !
 ! R11   R(5,26)                 1.0877         estimate D2E/DX2                !
 ! R12   R(6,7)                  1.399          estimate D2E/DX2                !
 ! R13   R(6,20)                 1.4172         estimate D2E/DX2                !
 ! R14   R(7,8)                  1.3931         estimate D2E/DX2                !
 ! R15   R(7,27)                 1.0877         estimate D2E/DX2                !
 ! R16   R(8,9)                  1.3988         estimate D2E/DX2                !
 ! R17   R(8,28)                 1.0878         estimate D2E/DX2                !
 ! R18   R(9,10)                 1.3976         estimate D2E/DX2                !
 ! R19   R(9,21)                 1.4173         estimate D2E/DX2                !
 ! R20   R(10,11)                1.3926         estimate D2E/DX2                !
 ! R21   R(10,29)                1.0876         estimate D2E/DX2                !
 ! R22   R(11,12)                1.3992         estimate D2E/DX2                !
 ! R23   R(11,30)                1.0879         estimate D2E/DX2                !
 ! R24   R(12,13)                1.3971         estimate D2E/DX2                !
 ! R25   R(12,22)                1.4216         estimate D2E/DX2                !
 ! R26   R(13,14)                1.3867         estimate D2E/DX2                !
 ! R27   R(13,31)                1.0876         estimate D2E/DX2                !
 ! R28   R(14,15)                1.3953         estimate D2E/DX2                !
 ! R29   R(14,32)                1.0868         estimate D2E/DX2                !
 ! R30   R(15,16)                1.4174         estimate D2E/DX2                !
 ! R31   R(15,33)                1.0861         estimate D2E/DX2                !
 ! R32   R(16,17)                1.4372         estimate D2E/DX2                !
 ! R33   R(16,22)                1.4198         estimate D2E/DX2                !
 ! R34   R(17,18)                1.4174         estimate D2E/DX2                !
 ! R35   R(17,19)                1.4198         estimate D2E/DX2                !
 ! R36   R(18,34)                1.0861         estimate D2E/DX2                !
 ! R37   R(19,20)                1.4152         estimate D2E/DX2                !
 ! R38   R(20,21)                1.412          estimate D2E/DX2                !
 ! R39   R(21,22)                1.4152         estimate D2E/DX2                !
 ! A1    A(2,1,18)             119.8771         estimate D2E/DX2                !
 ! A2    A(2,1,23)             120.1178         estimate D2E/DX2                !
 ! A3    A(18,1,23)            120.0051         estimate D2E/DX2                !
 ! A4    A(1,2,3)              120.2151         estimate D2E/DX2                !
 ! A5    A(1,2,24)             119.0018         estimate D2E/DX2                !
 ! A6    A(3,2,24)             120.7831         estimate D2E/DX2                !
 ! A7    A(2,3,4)              119.9218         estimate D2E/DX2                !
 ! A8    A(2,3,19)             120.0156         estimate D2E/DX2                !
 ! A9    A(4,3,19)             120.0626         estimate D2E/DX2                !
 ! A10   A(3,4,5)              120.6652         estimate D2E/DX2                !
 ! A11   A(3,4,25)             120.5929         estimate D2E/DX2                !
 ! A12   A(5,4,25)             118.7419         estimate D2E/DX2                !
 ! A13   A(4,5,6)              120.4725         estimate D2E/DX2                !
 ! A14   A(4,5,26)             118.8678         estimate D2E/DX2                !
 ! A15   A(6,5,26)             120.6598         estimate D2E/DX2                !
 ! A16   A(5,6,7)              120.4793         estimate D2E/DX2                !
 ! A17   A(5,6,20)             119.7141         estimate D2E/DX2                !
 ! A18   A(7,6,20)             119.8066         estimate D2E/DX2                !
 ! A19   A(6,7,8)              120.5296         estimate D2E/DX2                !
 ! A20   A(6,7,27)             120.6132         estimate D2E/DX2                !
 ! A21   A(8,7,27)             118.8572         estimate D2E/DX2                !
 ! A22   A(7,8,9)              120.5407         estimate D2E/DX2                !
 ! A23   A(7,8,28)             118.8467         estimate D2E/DX2                !
 ! A24   A(9,8,28)             120.6126         estimate D2E/DX2                !
 ! A25   A(8,9,10)             120.4792         estimate D2E/DX2                !
 ! A26   A(8,9,21)             119.8054         estimate D2E/DX2                !
 ! A27   A(10,9,21)            119.7154         estimate D2E/DX2                !
 ! A28   A(9,10,11)            120.4667         estimate D2E/DX2                !
 ! A29   A(9,10,29)            120.6568         estimate D2E/DX2                !
 ! A30   A(11,10,29)           118.8764         estimate D2E/DX2                !
 ! A31   A(10,11,12)           120.6671         estimate D2E/DX2                !
 ! A32   A(10,11,30)           118.7404         estimate D2E/DX2                !
 ! A33   A(12,11,30)           120.5924         estimate D2E/DX2                !
 ! A34   A(11,12,13)           119.9198         estimate D2E/DX2                !
 ! A35   A(11,12,22)           120.0646         estimate D2E/DX2                !
 ! A36   A(13,12,22)           120.0157         estimate D2E/DX2                !
 ! A37   A(12,13,14)           120.2208         estimate D2E/DX2                !
 ! A38   A(12,13,31)           120.7845         estimate D2E/DX2                !
 ! A39   A(14,13,31)           118.9946         estimate D2E/DX2                !
 ! A40   A(13,14,15)           119.8716         estimate D2E/DX2                !
 ! A41   A(13,14,32)           120.1233         estimate D2E/DX2                !
 ! A42   A(15,14,32)           120.0051         estimate D2E/DX2                !
 ! A43   A(14,15,16)           122.4014         estimate D2E/DX2                !
 ! A44   A(14,15,33)           116.5816         estimate D2E/DX2                !
 ! A45   A(16,15,33)           121.017          estimate D2E/DX2                !
 ! A46   A(15,16,17)           123.763          estimate D2E/DX2                !
 ! A47   A(15,16,22)           116.7872         estimate D2E/DX2                !
 ! A48   A(17,16,22)           119.4498         estimate D2E/DX2                !
 ! A49   A(16,17,18)           123.7653         estimate D2E/DX2                !
 ! A50   A(16,17,19)           119.4462         estimate D2E/DX2                !
 ! A51   A(18,17,19)           116.7886         estimate D2E/DX2                !
 ! A52   A(1,18,17)            122.4005         estimate D2E/DX2                !
 ! A53   A(1,18,34)            116.5807         estimate D2E/DX2                !
 ! A54   A(17,18,34)           121.0188         estimate D2E/DX2                !
 ! A55   A(3,19,17)            120.7032         estimate D2E/DX2                !
 ! A56   A(3,19,20)            118.8841         estimate D2E/DX2                !
 ! A57   A(17,19,20)           120.4127         estimate D2E/DX2                !
 ! A58   A(6,20,19)            120.2015         estimate D2E/DX2                !
 ! A59   A(6,20,21)            119.6584         estimate D2E/DX2                !
 ! A60   A(19,20,21)           120.1401         estimate D2E/DX2                !
 ! A61   A(9,21,20)            119.6593         estimate D2E/DX2                !
 ! A62   A(9,21,22)            120.1995         estimate D2E/DX2                !
 ! A63   A(20,21,22)           120.1413         estimate D2E/DX2                !
 ! A64   A(12,22,16)           120.7033         estimate D2E/DX2                !
 ! A65   A(12,22,21)           118.8867         estimate D2E/DX2                !
 ! A66   A(16,22,21)           120.41           estimate D2E/DX2                !
 ! D1    D(18,1,2,3)            -0.0044         estimate D2E/DX2                !
 ! D2    D(18,1,2,24)         -179.9986         estimate D2E/DX2                !
 ! D3    D(23,1,2,3)           179.9964         estimate D2E/DX2                !
 ! D4    D(23,1,2,24)            0.0022         estimate D2E/DX2                !
 ! D5    D(2,1,18,17)           -0.0021         estimate D2E/DX2                !
 ! D6    D(2,1,18,34)         -179.9975         estimate D2E/DX2                !
 ! D7    D(23,1,18,17)         179.9971         estimate D2E/DX2                !
 ! D8    D(23,1,18,34)           0.0017         estimate D2E/DX2                !
 ! D9    D(1,2,3,4)           -179.9997         estimate D2E/DX2                !
 ! D10   D(1,2,3,19)             0.0068         estimate D2E/DX2                !
 ! D11   D(24,2,3,4)            -0.0056         estimate D2E/DX2                !
 ! D12   D(24,2,3,19)         -179.9991         estimate D2E/DX2                !
 ! D13   D(2,3,4,5)           -179.9981         estimate D2E/DX2                !
 ! D14   D(2,3,4,25)             0.0071         estimate D2E/DX2                !
 ! D15   D(19,3,4,5)            -0.0046         estimate D2E/DX2                !
 ! D16   D(19,3,4,25)         -179.9995         estimate D2E/DX2                !
 ! D17   D(2,3,19,17)           -0.0028         estimate D2E/DX2                !
 ! D18   D(2,3,19,20)          179.9974         estimate D2E/DX2                !
 ! D19   D(4,3,19,17)         -179.9963         estimate D2E/DX2                !
 ! D20   D(4,3,19,20)            0.0039         estimate D2E/DX2                !
 ! D21   D(3,4,5,6)              0.0023         estimate D2E/DX2                !
 ! D22   D(3,4,5,26)          -179.9962         estimate D2E/DX2                !
 ! D23   D(25,4,5,6)           179.9973         estimate D2E/DX2                !
 ! D24   D(25,4,5,26)           -0.0012         estimate D2E/DX2                !
 ! D25   D(4,5,6,7)            179.9985         estimate D2E/DX2                !
 ! D26   D(4,5,6,20)             0.0007         estimate D2E/DX2                !
 ! D27   D(26,5,6,7)            -0.0031         estimate D2E/DX2                !
 ! D28   D(26,5,6,20)          179.9991         estimate D2E/DX2                !
 ! D29   D(5,6,7,8)            179.9998         estimate D2E/DX2                !
 ! D30   D(5,6,7,27)             0.0012         estimate D2E/DX2                !
 ! D31   D(20,6,7,8)            -0.0024         estimate D2E/DX2                !
 ! D32   D(20,6,7,27)          179.999          estimate D2E/DX2                !
 ! D33   D(5,6,20,19)           -0.0013         estimate D2E/DX2                !
 ! D34   D(5,6,20,21)          179.9998         estimate D2E/DX2                !
 ! D35   D(7,6,20,19)         -179.9992         estimate D2E/DX2                !
 ! D36   D(7,6,20,21)            0.002          estimate D2E/DX2                !
 ! D37   D(6,7,8,9)              0.0009         estimate D2E/DX2                !
 ! D38   D(6,7,8,28)           179.9981         estimate D2E/DX2                !
 ! D39   D(27,7,8,9)           179.9995         estimate D2E/DX2                !
 ! D40   D(27,7,8,28)           -0.0033         estimate D2E/DX2                !
 ! D41   D(7,8,9,10)           179.9979         estimate D2E/DX2                !
 ! D42   D(7,8,9,21)             0.0011         estimate D2E/DX2                !
 ! D43   D(28,8,9,10)            0.0008         estimate D2E/DX2                !
 ! D44   D(28,8,9,21)         -179.996          estimate D2E/DX2                !
 ! D45   D(8,9,10,11)          180.0            estimate D2E/DX2                !
 ! D46   D(8,9,10,29)            0.0051         estimate D2E/DX2                !
 ! D47   D(21,9,10,11)          -0.0032         estimate D2E/DX2                !
 ! D48   D(21,9,10,29)        -179.9981         estimate D2E/DX2                !
 ! D49   D(8,9,21,20)           -0.0016         estimate D2E/DX2                !
 ! D50   D(8,9,21,22)          179.9992         estimate D2E/DX2                !
 ! D51   D(10,9,21,20)        -179.9984         estimate D2E/DX2                !
 ! D52   D(10,9,21,22)           0.0023         estimate D2E/DX2                !
 ! D53   D(9,10,11,12)           0.0051         estimate D2E/DX2                !
 ! D54   D(9,10,11,30)         179.9999         estimate D2E/DX2                !
 ! D55   D(29,10,11,12)       -179.9999         estimate D2E/DX2                !
 ! D56   D(29,10,11,30)         -0.0051         estimate D2E/DX2                !
 ! D57   D(10,11,12,13)       -179.9965         estimate D2E/DX2                !
 ! D58   D(10,11,12,22)         -0.006          estimate D2E/DX2                !
 ! D59   D(30,11,12,13)          0.0088         estimate D2E/DX2                !
 ! D60   D(30,11,12,22)        179.9993         estimate D2E/DX2                !
 ! D61   D(11,12,13,14)        179.9968         estimate D2E/DX2                !
 ! D62   D(11,12,13,31)         -0.01           estimate D2E/DX2                !
 ! D63   D(22,12,13,14)          0.0062         estimate D2E/DX2                !
 ! D64   D(22,12,13,31)        179.9995         estimate D2E/DX2                !
 ! D65   D(11,12,22,16)       -179.9952         estimate D2E/DX2                !
 ! D66   D(11,12,22,21)          0.0051         estimate D2E/DX2                !
 ! D67   D(13,12,22,16)         -0.0047         estimate D2E/DX2                !
 ! D68   D(13,12,22,21)        179.9956         estimate D2E/DX2                !
 ! D69   D(12,13,14,15)         -0.0018         estimate D2E/DX2                !
 ! D70   D(12,13,14,32)        179.9932         estimate D2E/DX2                !
 ! D71   D(31,13,14,15)       -179.9952         estimate D2E/DX2                !
 ! D72   D(31,13,14,32)         -0.0002         estimate D2E/DX2                !
 ! D73   D(13,14,15,16)         -0.0043         estimate D2E/DX2                !
 ! D74   D(13,14,15,33)       -179.9985         estimate D2E/DX2                !
 ! D75   D(32,14,15,16)       -179.9993         estimate D2E/DX2                !
 ! D76   D(32,14,15,33)          0.0065         estimate D2E/DX2                !
 ! D77   D(14,15,16,17)        179.9984         estimate D2E/DX2                !
 ! D78   D(14,15,16,22)          0.0057         estimate D2E/DX2                !
 ! D79   D(33,15,16,17)         -0.0076         estimate D2E/DX2                !
 ! D80   D(33,15,16,22)        179.9997         estimate D2E/DX2                !
 ! D81   D(15,16,17,18)          0.01           estimate D2E/DX2                !
 ! D82   D(15,16,17,19)       -179.9995         estimate D2E/DX2                !
 ! D83   D(22,16,17,18)       -179.9975         estimate D2E/DX2                !
 ! D84   D(22,16,17,19)         -0.007          estimate D2E/DX2                !
 ! D85   D(15,16,22,12)         -0.0012         estimate D2E/DX2                !
 ! D86   D(15,16,22,21)        179.9986         estimate D2E/DX2                !
 ! D87   D(17,16,22,12)       -179.9942         estimate D2E/DX2                !
 ! D88   D(17,16,22,21)          0.0055         estimate D2E/DX2                !
 ! D89   D(16,17,18,1)         179.9968         estimate D2E/DX2                !
 ! D90   D(16,17,18,34)         -0.0081         estimate D2E/DX2                !
 ! D91   D(19,17,18,1)           0.006          estimate D2E/DX2                !
 ! D92   D(19,17,18,34)       -179.9989         estimate D2E/DX2                !
 ! D93   D(16,17,19,3)        -179.9946         estimate D2E/DX2                !
 ! D94   D(16,17,19,20)          0.0052         estimate D2E/DX2                !
 ! D95   D(18,17,19,3)          -0.0034         estimate D2E/DX2                !
 ! D96   D(18,17,19,20)        179.9964         estimate D2E/DX2                !
 ! D97   D(3,19,20,6)           -0.0009         estimate D2E/DX2                !
 ! D98   D(3,19,20,21)         179.9979         estimate D2E/DX2                !
 ! D99   D(17,19,20,6)         179.9992         estimate D2E/DX2                !
 ! D100  D(17,19,20,21)         -0.0019         estimate D2E/DX2                !
 ! D101  D(6,20,21,9)            0.0            estimate D2E/DX2                !
 ! D102  D(6,20,21,22)         179.9993         estimate D2E/DX2                !
 ! D103  D(19,20,21,9)        -179.9989         estimate D2E/DX2                !
 ! D104  D(19,20,21,22)          0.0004         estimate D2E/DX2                !
 ! D105  D(9,21,22,12)          -0.0033         estimate D2E/DX2                !
 ! D106  D(9,21,22,16)         179.997          estimate D2E/DX2                !
 ! D107  D(20,21,22,12)        179.9975         estimate D2E/DX2                !
 ! D108  D(20,21,22,16)         -0.0023         estimate D2E/DX2                !
 --------------------------------------------------------------------------------
 Trust Radius=3.00D-01 FncErr=1.00D-07 GrdErr=1.00D-06 EigMax=2.50D+02 EigMin=1.00D-04
 Number of steps in this run=    204 maximum allowed number of steps=    204.
 GradGradGradGradGradGradGradGradGradGradGradGradGradGradGradGradGradGrad

                          Input orientation:                          
 ---------------------------------------------------------------------
 Center     Atomic      Atomic             Coordinates (Angstroms)
 Number     Number       Type             X           Y           Z
 ---------------------------------------------------------------------
      1          6           0       -0.660600   -3.902500   -0.114500
      2          6           0       -1.922400   -3.343600    0.021400
      3          6           0       -2.072700   -1.956600    0.096100
      4          6           0       -3.348800   -1.399200    0.233200
      5          6           0       -3.516500   -0.018800    0.309100
      6          6           0       -2.410800    0.833800    0.249400
      7          6           0       -2.579100    2.220500    0.325600
      8          6           0       -1.477600    3.071400    0.266200
      9          6           0       -0.185600    2.553100    0.129400
     10          6           0        0.918500    3.407900    0.069900
     11          6           0        2.204700    2.891600   -0.066300
     12          6           0        2.414600    1.510500   -0.146000
     13          6           0        3.711600    1.009500   -0.282400
     14          6           0        3.926800   -0.358100   -0.361900
     15          6           0        2.844100   -1.236400   -0.305400
     16          6           0        1.507200   -0.786100   -0.167600
     17          6           0        0.371000   -1.664000   -0.106400
     18          6           0        0.462300   -3.076700   -0.176900
     19          6           0       -0.930100   -1.113000    0.032700
     20          6           0       -1.110000    0.288600    0.110600
     21          6           0        0.006300    1.151100    0.050400
     22          6           0        1.309800    0.617700   -0.088100
     23          1           0       -0.545500   -4.981700   -0.172400
     24          1           0       -2.787700   -4.000500    0.068600
     25          1           0       -4.229000   -2.036600    0.282600
     26          1           0       -4.521600    0.383000    0.415500
     27          1           0       -3.571400    2.653000    0.432200
     28          1           0       -1.640000    4.145200    0.328000
     29          1           0        0.788900    4.486100    0.129100
     30          1           0        3.043900    3.582600   -0.109700
     31          1           0        4.565800    1.681100   -0.328000
     32          1           0        4.936400   -0.746100   -0.468100
     33          1           0        3.073700   -2.295800   -0.372500
     34          1           0        1.423600   -3.570800   -0.283500
 ---------------------------------------------------------------------
                    Distance matrix (angstroms):
                    1          2          3          4          5
     1  C    0.000000
     2  C    1.386715   0.000000
     3  C    2.413484   1.397118   0.000000
     4  C    3.689692   2.420778   1.399258   0.000000
     5  C    4.839290   3.698408   2.425901   1.392619   0.000000
     6  C    5.062426   4.212029   2.814986   2.422064   1.397520
     7  C    6.431598   5.610972   4.213938   3.701784   2.427644
     8  C    7.031906   6.435060   5.065951   4.846519   3.702471
     9  C    6.477645   6.148106   4.888727   5.063327   4.212108
    10  C    7.481277   7.325013   6.142135   6.429987   5.609698
    11  C    7.373741   7.477858   6.467424   7.024388   6.429890
    12  C    6.225626   6.511519   5.675848   6.467374   6.141972
    13  C    6.578151   7.126270   6.511462   7.477762   7.324801
    14  C    5.802432   6.578242   6.225670   7.373764   7.481182
    15  C    4.407659   5.221744   4.985460   6.218408   6.505182
    16  C    3.796594   4.282369   3.775618   4.910934   5.104268
    17  C    2.464781   2.845536   2.469472   3.744644   4.241695
    18  C    1.395258   2.407769   2.784848   4.184097   5.041607
    19  C    2.806351   2.441386   1.421695   2.443813   2.821903
    20  C    4.221131   3.723013   2.442934   2.806408   2.434161
    21  C    5.100080   4.891120   3.739268   4.218310   3.720983
    22  C    4.931063   5.113805   4.254675   5.086617   4.884268
    23  H    1.086864   2.148670   3.399362   4.566980   5.804228
    24  H    2.137214   1.087423   2.165527   2.666212   4.054988
    25  H    4.046325   2.663997   2.165828   1.087875   2.140064
    26  H    5.792558   4.560560   3.401890   2.141245   1.087654
    27  H    7.193484   6.232750   4.858753   4.063186   2.675198
    28  H    8.119144   7.500392   6.121517   5.802530   4.567330
    29  H    8.516396   8.286552   7.049697   7.195009   6.234019
    30  H    8.351650   8.523706   7.543519   8.111876   7.495620
    31  H    7.650976   8.213795   7.581715   8.511409   8.283666
    32  H    6.435395   7.350493   7.135202   8.340438   8.519655
    33  H    4.073456   5.119967   5.178810   6.513008   7.005715
    34  H    2.117186   3.367536   3.869606   5.268646   6.113302
                    6          7          8          9         10
     6  C    0.000000
     7  C    1.398953   0.000000
     8  C    2.424458   1.393148   0.000000
     9  C    2.814588   2.424450   1.398790   0.000000
    10  C    4.212179   3.702500   2.427563   1.397591   0.000000
    11  C    5.063304   4.846515   3.701651   2.422068   1.392633
    12  C    4.888635   5.065920   4.213732   2.814942   2.425913
    13  C    6.147964   6.434990   5.610721   4.211941   3.698357
    14  C    6.477614   7.031968   6.431448   5.062440   4.839326
    15  C    5.675166   6.462153   6.128700   4.871185   5.041657
    16  C    4.260128   5.097130   4.896685   3.755534   4.241770
    17  C    3.755531   4.896841   5.097074   4.260204   5.104411
    18  C    4.871185   6.128862   6.462096   5.675231   6.505311
    19  C    2.455496   3.730578   4.226521   3.742181   4.884388
    20  C    1.417247   2.436538   2.811284   2.445982   3.721089
    21  C    2.445946   2.811342   2.436407   1.417276   2.434263
    22  C    3.742121   4.226542   3.730385   2.455463   2.821931
    23  H    6.121871   7.500348   8.118719   7.549425   8.519824
    24  H    4.852340   6.229800   7.194941   7.051546   8.283738
    25  H    3.397963   4.565843   5.801908   6.118652   7.495637
    26  H    2.164783   2.675405   4.063954   4.857168   6.234112
    27  H    2.165617   1.087694   2.141638   3.400781   4.567312
    28  H    3.400835   2.141585   1.087768   2.165526   2.675098
    29  H    4.857144   4.063863   2.675293   2.164749   1.087573
    30  H    6.118710   5.801977   4.565806   3.398045   2.140117
    31  H    7.051543   7.194980   6.229662   4.852360   4.054992
    32  H    7.549320   8.118708   7.500127   6.121814   5.804195
    33  H    6.345147   7.269007   7.066053   5.864023   6.113330
    34  H    5.864052   7.066241   7.268972   6.345247   7.005874
                   11         12         13         14         15
    11  C    0.000000
    12  C    1.399231   0.000000
    13  C    2.420691   1.397074   0.000000
    14  C    3.689656   2.413509   1.386709   0.000000
    15  C    4.184063   2.784841   2.407728   1.395293   0.000000
    16  C    3.744629   2.469456   2.845477   2.464833   1.417413
    17  C    4.910963   3.775622   4.282311   3.796626   2.517671
    18  C    6.218424   4.985462   5.221696   4.407695   3.012671
    19  C    5.086609   4.254610   5.113675   4.931030   3.791322
    20  C    4.218310   3.739210   4.891009   5.100082   4.258355
    21  C    2.806407   2.442877   3.722909   4.221137   3.725568
    22  C    2.443756   1.421628   2.441291   2.806393   2.416399
    23  H    8.340486   7.135233   7.350475   6.435453   5.053152
    24  H    8.511363   7.581629   8.213659   7.650942   6.284687
    25  H    8.111805   7.543410   8.523560   8.351636   7.142465
    26  H    7.195020   7.049639   8.286444   8.516398   7.575994
    27  H    5.802479   6.121423   7.500256   8.119133   7.538576
    28  H    4.063090   4.858611   6.232562   7.193395   7.033489
    29  H    2.141285   3.401878   4.560510   5.792562   6.095871
    30  H    1.087944   2.165857   2.663924   4.046262   4.827109
    31  H    2.666194   2.165615   1.087559   2.137243   3.387708
    32  H    4.566891   3.399333   2.148663   1.086791   2.155130
    33  H    5.268590   3.869578   3.367498   2.117209   1.086069
    34  H    6.513057   5.178861   5.119970   4.073524   2.732714
                   16         17         18         19         20
    16  C    0.000000
    17  C    1.437151   0.000000
    18  C    2.517688   1.417402   0.000000
    19  C    2.467269   1.419793   2.416367   0.000000
    20  C    2.842905   2.460304   3.725591   1.415244   0.000000
    21  C    2.460278   2.842953   4.258391   2.450165   1.411969
    22  C    1.419839   2.467354   3.791403   2.833208   2.450147
    23  H    4.670831   3.442595   2.155158   3.893176   5.307995
    24  H    5.369760   3.932842   3.387651   3.433602   4.605738
    25  H    5.888159   4.631431   4.827136   3.434855   3.894137
    26  H    6.168730   5.329177   6.095877   3.909402   3.426498
    27  H    6.162739   5.871039   7.033577   4.617231   3.428163
    28  H    5.870963   6.162761   7.538596   5.314116   3.898913
    29  H    5.329172   6.168779   7.576031   5.857830   4.607078
    30  H    4.631451   5.888227   7.142510   6.153179   5.306020
    31  H    3.932917   5.369837   6.284760   6.175922   5.860557
    32  H    3.442574   4.670786   5.053124   5.899257   6.161530
    33  H    2.185200   2.788291   2.732668   4.194475   4.941240
    34  H    2.788364   2.185227   1.086092   3.417699   4.633510
                   21         22         23         24         25
    21  C    0.000000
    22  C    1.415207   0.000000
    23  H    6.161604   5.899366   0.000000
    24  H    5.860525   6.175907   2.459328   0.000000
    25  H    5.305951   6.153132   4.738018   2.445413   0.000000
    26  H    4.607077   5.857809   6.703358   4.726714   2.440848
    27  H    3.898899   5.314064   8.234698   6.709356   4.737844
    28  H    3.428119   4.617111   9.205902   8.230245   6.702211
    29  H    3.426497   3.909352   9.566126   9.209675   8.230948
    30  H    3.894206   3.434851   9.286278   9.567798   9.199151
    31  H    4.605771   3.433643   8.398958   9.301174   9.567791
    32  H    5.307928   3.893145   6.933900   8.398862   9.286199
    33  H    4.633455   3.417705   4.511398   6.120178   7.336605
    34  H    4.941312   4.194599   2.424941   4.247783   5.884397
                   26         27         28         29         30
    26  H    0.000000
    27  H    2.460906   0.000000
    28  H    4.739770   2.442913   0.000000
    29  H    6.717058   4.739656   2.460758   0.000000
    30  H    8.231043   6.702239   4.737829   2.440976   0.000000
    31  H    9.209707   8.230220   6.709253   4.726726   2.445309
    32  H    9.566054   9.205818   8.234539   6.703307   4.737895
    33  H    8.092311   8.324393   8.012250   7.173986   5.884347
    34  H    7.174018   8.012362   8.324436   8.092387   7.336669
                   31         32         33         34
    31  H    0.000000
    32  H    2.459324   0.000000
    33  H    4.247832   2.424946   0.000000
    34  H    6.120282   4.511405   2.087193   0.000000
 Stoichiometry    C22H12
 Framework group  C2V[SGV(C22H12)]
 Deg. of freedom    33
 Full point group                 C2V     NOp   4
 Largest Abelian subgroup         C2V     NOp   4
 Largest concise Abelian subgroup C2      NOp   2
                         Standard orientation:                         
 ---------------------------------------------------------------------
 Center     Atomic      Atomic             Coordinates (Angstroms)
 Number     Number       Type             X           Y           Z
 ---------------------------------------------------------------------
      1          6           0        0.000000    2.901316   -2.725473
      2          6           0        0.000000    3.563241   -1.506936
      3          6           0        0.000000    2.837964   -0.312820
      4          6           0        0.000000    3.512162    0.913303
      5          6           0        0.000000    2.804724    2.112853
      6          6           0        0.000000    1.407204    2.111447
      7          6           0        0.000000    0.696405    3.316367
      8          6           0       -0.000000   -0.696405    3.316367
      9          6           0       -0.000000   -1.407204    2.111447
     10          6           0       -0.000000   -2.804724    2.112853
     11          6           0       -0.000000   -3.512162    0.913303
     12          6           0       -0.000000   -2.837964   -0.312820
     13          6           0       -0.000000   -3.563241   -1.506936
     14          6           0       -0.000000   -2.901316   -2.725473
     15          6           0       -0.000000   -1.506217   -2.758818
     16          6           0       -0.000000   -0.718497   -1.580448
     17          6           0        0.000000    0.718497   -1.580448
     18          6           0        0.000000    1.506217   -2.758818
     19          6           0        0.000000    1.416612   -0.344031
     20          6           0        0.000000    0.705954    0.879848
     21          6           0       -0.000000   -0.705954    0.879848
     22          6           0       -0.000000   -1.416612   -0.344031
     23          1           0        0.000000    3.467110   -3.653455
     24          1           0        0.000000    4.650625   -1.497628
     25          1           0        0.000000    4.599507    0.947251
     26          1           0        0.000000    3.358419    3.049022
     27          1           0        0.000000    1.221235    4.269064
     28          1           0       -0.000000   -1.221235    4.269064
     29          1           0       -0.000000   -3.358419    3.049022
     30          1           0       -0.000000   -4.599507    0.947251
     31          1           0       -0.000000   -4.650625   -1.497628
     32          1           0       -0.000000   -3.467110   -3.653455
     33          1           0       -0.000000   -1.043431   -3.741354
     34          1           0        0.000000    1.043431   -3.741354
 ---------------------------------------------------------------------
 Rotational constants (GHZ):           0.4535843           0.3348184           0.1926279
 Standard basis: def2SVPP (5D, 7F)
 There are   133 symmetry adapted cartesian basis functions of A1  symmetry.
 There are    44 symmetry adapted cartesian basis functions of A2  symmetry.
 There are    44 symmetry adapted cartesian basis functions of B1  symmetry.
 There are   133 symmetry adapted cartesian basis functions of B2  symmetry.
 There are   122 symmetry adapted basis functions of A1  symmetry.
 There are    44 symmetry adapted basis functions of A2  symmetry.
 There are    44 symmetry adapted basis functions of B1  symmetry.
 There are   122 symmetry adapted basis functions of B2  symmetry.
   332 basis functions,   598 primitive gaussians,   354 cartesian basis functions
    72 alpha electrons       72 beta electrons
       nuclear repulsion energy      1602.2771390058 Hartrees.
 NAtoms=   34 NActive=   34 NUniq=   17 SFac= 4.00D+00 NAtFMM=   60 NAOKFM=F Big=F
 Integral buffers will be    131072 words long.
 Raffenetti 2 integral format.
 Two-electron integral symmetry is turned on.
 Nuclear repulsion after empirical dispersion term =     1602.1822987076 Hartrees.
 One-electron integrals computed using PRISM.
   4 Symmetry operations used in ECPInt.
 ECPInt:  NShTT=   12246 NPrTT=   49150 LenC2=   11629 LenP2D=   32086.
 LDataN:  DoStor=T MaxTD1= 4 Len=   56
 NBasis=   332 RedAO= T EigKep=  9.64D-05  NBF=   122    44    44   122
 NBsUse=   332 1.00D-06 EigRej= -1.00D+00 NBFU=   122    44    44   122
 ExpMin= 1.22D-01 ExpMax= 1.24D+03 ExpMxC= 1.86D+02 IAcc=3 IRadAn=         5 AccDes= 0.00D+00
 Harris functional with IExCor=  402 and IRadAn=       5 diagonalized for initial guess.
 HarFok:  IExCor=  402 AccDes= 0.00D+00 IRadAn=         5 IDoV= 1 UseB2=F ITyADJ=14
 ICtDFT=  3500011 ScaDFX=  1.000000  1.000000  1.000000  1.000000
 FoFCou: FMM=F IPFlag=           0 FMFlag=      100000 FMFlg1=           0
         NFxFlg=           0 DoJE=T BraDBF=F KetDBF=T FulRan=T
         wScrn=  0.000000 ICntrl=       500 IOpCl=  0 I1Cent=   200000004 NGrid=           0
         NMat0=    1 NMatS0=      1 NMatT0=    0 NMatD0=    1 NMtDS0=    0 NMtDT0=    0
 Petite list used in FoFCou.
 Initial guess orbital symmetries:
       Occupied  (B2) (A1) (B2) (A1) (B2) (A1) (A1) (B2) (A1) (B2)
                 (B2) (A1) (B2) (A1) (B2) (A1) (A1) (B2) (B2) (A1)
                 (A1) (B2) (A1) (B2) (A1) (B2) (A1) (A1) (B2) (A1)
                 (B2) (A1) (B2) (A1) (B2) (A1) (A1) (B2) (B2) (B2)
                 (A1) (A1) (A1) (B2) (B2) (A1) (A1) (B2) (A1) (B2)
                 (A1) (A1) (B2) (A1) (B1) (B2) (B2) (A1) (B2) (A2)
                 (A1) (B1) (A1) (B2) (A2) (B1) (B1) (A2) (B1) (A2)
                 (B1) (A2)
       Virtual   (B1) (A2) (B1) (A2) (B1) (A2) (A2) (B1) (A1) (A1)
                 (B2) (A2) (B2) (B1) (A1) (A1) (B2) (B2) (A1) (A1)
                 (A1) (B2) (A2) (B2) (B2) (A1) (A1) (B2) (A1) (B2)
                 (A1) (B2) (A1) (B2) (A1) (A1) (B2) (A1) (B2) (A1)
                 (B2) (B2) (A1) (B2) (B2) (A1) (A1) (A1) (B2) (B2)
                 (A1) (B2) (B2) (A1) (B1) (A1) (B2) (A1) (A2) (B1)
                 (B2) (A1) (A2) (A1) (B2) (B1) (B2) (A1) (B1) (A1)
                 (A2) (B2) (A1) (B1) (B2) (A2) (B2) (B1) (B1) (A2)
                 (A1) (B2) (B1) (A1) (A2) (B2) (A1) (B1) (A1) (B2)
                 (B2) (A1) (B2) (A2) (A1) (B2) (A1) (B2) (A2) (A1)
                 (B2) (B1) (A1) (B2) (B2) (A2) (A1) (B2) (A1) (A2)
                 (B2) (A1) (B2) (B1) (A1) (B2) (A1) (A1) (B2) (A1)
                 (B2) (A2) (B2) (A1) (B2) (A1) (B2) (A1) (B2) (B2)
                 (A1) (B1) (B1) (A1) (B2) (A2) (A1) (B1) (B2) (A2)
                 (B1) (B2) (A1) (B1) (B2) (A1) (B1) (A2) (A2) (A1)
                 (B2) (B2) (A1) (B1) (A2) (B1) (A2) (B1) (B2) (B1)
                 (A2) (A1) (B2) (B2) (B2) (A1) (A1) (A1) (B2) (A1)
                 (A2) (B2) (A1) (B2) (A1) (B2) (B1) (A2) (A1) (A1)
                 (B1) (A1) (B2) (A1) (A2) (B2) (B2) (A1) (B2) (A1)
                 (B1) (A1) (A2) (A1) (B2) (B2) (A1) (B2) (A1) (B2)
                 (B1) (A1) (A2) (B2) (B1) (A1) (B2) (A2) (A1) (B1)
                 (A2) (B1) (B2) (B2) (B1) (A1) (A2) (A2) (B1) (A2)
                 (B2) (B1) (A2) (A1) (A1) (A2) (B2) (A1) (B2) (A1)
                 (B1) (B2) (B2) (A1) (A2) (B2) (B1) (A1) (B2) (A1)
                 (A2) (B2) (B2) (A2) (A1) (A1) (A1) (B2) (B2) (B2)
                 (A1) (A1) (B2) (B2) (B2) (A1) (B2) (A1) (B2) (B2)
 The electronic state of the initial guess is 1-A1.
 Requested convergence on RMS density matrix=1.00D-08 within 128 cycles.
 Requested convergence on MAX density matrix=1.00D-06.
 Requested convergence on             energy=1.00D-06.
 No special actions if energy rises.
 Integral accuracy reduced to 1.0D-05 until final iterations.
 Initial convergence to 1.0D-05 achieved.  Increase integral accuracy.
 SCF Done:  E(RB3LYP) =  -845.109863699     A.U. after   18 cycles
            NFock= 18  Conv=0.30D-08     -V/T= 2.0103

 **********************************************************************

            Population analysis using the SCF Density.

 **********************************************************************

 Orbital symmetries:
       Occupied  (A1) (B2) (B2) (A1) (A1) (B2) (B2) (A1) (B2) (A1)
                 (B2) (A1) (B2) (A1) (A1) (B2) (A1) (B2) (B2) (A1)
                 (B2) (A1) (A1) (B2) (A1) (B2) (A1) (A1) (B2) (A1)
                 (B2) (A1) (B2) (A1) (B2) (A1) (A1) (B2) (B2) (B2)
                 (A1) (A1) (A1) (B2) (B2) (A1) (A1) (B2) (A1) (B2)
                 (B1) (A1) (A1) (B2) (A1) (A2) (B2) (B2) (B1) (A1)
                 (B2) (A1) (A2) (A1) (B1) (B2) (B1) (A2) (B1) (A2)
                 (B1) (A2)
       Virtual   (B1) (A2) (B1) (A2) (B1) (A2) (A1) (A1) (A2) (B2)
                 (B1) (B2) (A1) (A1) (B2) (A1) (B2) (A2) (A1) (B1)
                 (B2) (B2) (A1) (A1) (A1) (B2) (B2) (B2) (A2) (A1)
                 (B2) (A1) (B2) (A1) (A1) (A1) (B2) (A1) (A1) (B2)
                 (B2) (A1) (B2) (B2) (A1) (A1) (B2) (B2) (A1) (B2)
                 (A1) (B1) (A1) (B2) (B2) (A1) (A2) (B2) (B1) (A1)
                 (A1) (B2) (A2) (A1) (B1) (B2) (B1) (A1) (B2) (A2)
                 (B1) (A1) (A1) (B2) (A2) (B1) (B2) (B1) (A2) (B2)
                 (B1) (A2) (A1) (B1) (B2) (A1) (B2) (A2) (A1) (B2)
                 (A1) (A1) (B2) (A2) (A1) (B2) (B1) (A1) (B2) (B2)
                 (A2) (B2) (A1) (A1) (B2) (A2) (A1) (B2) (A1) (B1)
                 (B2) (B2) (B2) (A1) (A1) (B2) (A1) (A1) (B2) (A1)
                 (A2) (B2) (B2) (A1) (B2) (A1) (B2) (A1) (B2) (B2)
                 (A1) (A1) (B2) (B1) (B1) (A1) (B2) (A2) (B1) (A2)
                 (B1) (B2) (A1) (B2) (A1) (B1) (A1) (B2) (A1) (B2)
                 (B1) (A2) (A2) (B2) (B1) (A2) (B1) (A2) (B1) (A1)
                 (B1) (B2) (A2) (B2) (B2) (A1) (A1) (B2) (A1) (A1)
                 (A2) (B2) (A1) (B2) (B1) (A2) (A1) (B2) (A1) (B1)
                 (A1) (A1) (B2) (A2) (A1) (B2) (B2) (A1) (B2) (A1)
                 (B1) (A1) (A2) (A1) (B2) (B2) (A1) (B2) (A1) (B1)
                 (B2) (A2) (A1) (B2) (B1) (B2) (A1) (A2) (B1) (A1)
                 (B1) (A2) (B2) (B1) (B2) (A1) (A2) (A2) (B1) (A2)
                 (B2) (B1) (A2) (A1) (A2) (A1) (B2) (A1) (B2) (A1)
                 (B1) (B2) (A1) (A2) (B2) (B2) (B1) (A1) (B2) (A2)
                 (A1) (B2) (A2) (B2) (A1) (A1) (A1) (B2) (B2) (B2)
                 (A1) (A1) (B2) (B2) (B2) (A1) (B2) (A1) (B2) (B2)
 The electronic state is 1-A1.
 Alpha  occ. eigenvalues --  -10.20287 -10.20265 -10.19806 -10.19791 -10.19636
 Alpha  occ. eigenvalues --  -10.19603 -10.19551 -10.19547 -10.19458 -10.19446
 Alpha  occ. eigenvalues --  -10.19133 -10.19120 -10.18993 -10.18992 -10.18949
 Alpha  occ. eigenvalues --  -10.18944 -10.18942 -10.18910 -10.18903 -10.18902
 Alpha  occ. eigenvalues --  -10.18819 -10.18818  -0.90225  -0.86833  -0.85499
 Alpha  occ. eigenvalues --   -0.81687  -0.81131  -0.78958  -0.75324  -0.75003
 Alpha  occ. eigenvalues --   -0.74041  -0.71842  -0.69477  -0.64529  -0.63566
 Alpha  occ. eigenvalues --   -0.63348  -0.62246  -0.60374  -0.55472  -0.54620
 Alpha  occ. eigenvalues --   -0.54201  -0.53832  -0.51400  -0.49390  -0.48143
 Alpha  occ. eigenvalues --   -0.47478  -0.45966  -0.45551  -0.44617  -0.43164
 Alpha  occ. eigenvalues --   -0.43048  -0.42926  -0.42670  -0.40564  -0.40535
 Alpha  occ. eigenvalues --   -0.39061  -0.38771  -0.38304  -0.37690  -0.37479
 Alpha  occ. eigenvalues --   -0.36746  -0.35760  -0.33141  -0.32825  -0.32771
 Alpha  occ. eigenvalues --   -0.32465  -0.30159  -0.26670  -0.26075  -0.25587
 Alpha  occ. eigenvalues --   -0.22275  -0.19496
 Alpha virt. eigenvalues --   -0.07390  -0.04469  -0.02217  -0.00822  -0.00797
 Alpha virt. eigenvalues --    0.04321   0.06028   0.06961   0.07144   0.07146
 Alpha virt. eigenvalues --    0.08135   0.08737   0.09272   0.11025   0.11248
 Alpha virt. eigenvalues --    0.13223   0.13817   0.15386   0.16028   0.17411
 Alpha virt. eigenvalues --    0.17628   0.19779   0.22522   0.23987   0.24563
 Alpha virt. eigenvalues --    0.24666   0.25692   0.25938   0.25979   0.26265
 Alpha virt. eigenvalues --    0.27505   0.27776   0.29862   0.30022   0.30327
 Alpha virt. eigenvalues --    0.31157   0.32068   0.32298   0.33175   0.33506
 Alpha virt. eigenvalues --    0.34239   0.34578   0.35417   0.36063   0.37500
 Alpha virt. eigenvalues --    0.39067   0.39688   0.40119   0.40456   0.41788
 Alpha virt. eigenvalues --    0.42713   0.44310   0.44343   0.44598   0.45136
 Alpha virt. eigenvalues --    0.45293   0.46349   0.46681   0.46752   0.47697
 Alpha virt. eigenvalues --    0.47907   0.48206   0.49352   0.49600   0.49633
 Alpha virt. eigenvalues --    0.50687   0.51399   0.51861   0.52430   0.53055
 Alpha virt. eigenvalues --    0.54044   0.54438   0.55952   0.56402   0.56711
 Alpha virt. eigenvalues --    0.57387   0.57911   0.59140   0.60145   0.60219
 Alpha virt. eigenvalues --    0.63503   0.64055   0.64949   0.65676   0.66253
 Alpha virt. eigenvalues --    0.66796   0.67206   0.67575   0.67873   0.68603
 Alpha virt. eigenvalues --    0.69171   0.69532   0.70335   0.70567   0.72181
 Alpha virt. eigenvalues --    0.72611   0.72751   0.72770   0.72903   0.73771
 Alpha virt. eigenvalues --    0.74519   0.75089   0.76144   0.77010   0.77680
 Alpha virt. eigenvalues --    0.79385   0.79558   0.80365   0.80506   0.81887
 Alpha virt. eigenvalues --    0.82472   0.82683   0.83042   0.84323   0.85914
 Alpha virt. eigenvalues --    0.87188   0.88240   0.89846   0.91970   0.92012
 Alpha virt. eigenvalues --    0.93478   0.93912   0.97890   1.02236   1.07203
 Alpha virt. eigenvalues --    1.09760   1.11182   1.11922   1.12740   1.13346
 Alpha virt. eigenvalues --    1.16318   1.18698   1.19057   1.20094   1.20153
 Alpha virt. eigenvalues --    1.20702   1.22908   1.23941   1.25046   1.26441
 Alpha virt. eigenvalues --    1.28787   1.30706   1.30759   1.35263   1.35700
 Alpha virt. eigenvalues --    1.35992   1.36941   1.37618   1.38760   1.38988
 Alpha virt. eigenvalues --    1.39693   1.39726   1.40566   1.44181   1.45344
 Alpha virt. eigenvalues --    1.46134   1.46335   1.47062   1.47448   1.47673
 Alpha virt. eigenvalues --    1.48430   1.48465   1.48689   1.53007   1.54750
 Alpha virt. eigenvalues --    1.57144   1.66188   1.67137   1.68153   1.69305
 Alpha virt. eigenvalues --    1.71290   1.73696   1.75517   1.76226   1.76406
 Alpha virt. eigenvalues --    1.76589   1.77055   1.77922   1.79333   1.82818
 Alpha virt. eigenvalues --    1.83564   1.84110   1.85498   1.86615   1.87331
 Alpha virt. eigenvalues --    1.87846   1.91253   1.91741   1.92639   1.93584
 Alpha virt. eigenvalues --    1.96920   1.99437   2.02023   2.03502   2.06729
 Alpha virt. eigenvalues --    2.06929   2.08476   2.08920   2.09522   2.10357
 Alpha virt. eigenvalues --    2.10382   2.11892   2.13019   2.15475   2.17003
 Alpha virt. eigenvalues --    2.19819   2.20075   2.20807   2.23484   2.23651
 Alpha virt. eigenvalues --    2.23907   2.23912   2.26222   2.26365   2.26680
 Alpha virt. eigenvalues --    2.27384   2.27442   2.31346   2.33346   2.34497
 Alpha virt. eigenvalues --    2.35113   2.36041   2.37517   2.41520   2.47988
 Alpha virt. eigenvalues --    2.49477   2.50651   2.54906   2.56108   2.56851
 Alpha virt. eigenvalues --    2.56944   2.58649   2.60076   2.61095   2.61180
 Alpha virt. eigenvalues --    2.63031   2.63983   2.65460   2.67450   2.70248
 Alpha virt. eigenvalues --    2.71206   2.73165   2.73784   2.75198   2.76281
 Alpha virt. eigenvalues --    2.78448   2.80049   2.80118   2.89146   2.90226
 Alpha virt. eigenvalues --    2.92762   2.96276   2.96396   3.05038   3.18606
 Alpha virt. eigenvalues --    3.30915   3.34254   3.38290   3.56620   3.60570
          Condensed to atoms (all electrons):
               1          2          3          4          5          6
     1  C    5.238644   0.142536   0.167685   0.025388  -0.001898   0.000452
     2  C    0.142536   5.563054   0.204824  -0.188535   0.022659  -0.002415
     3  C    0.167685   0.204824   5.482689   0.149525   0.172172  -0.169247
     4  C    0.025388  -0.188535   0.149525   5.576057   0.153850   0.171231
     5  C   -0.001898   0.022659   0.172172   0.153850   5.571361   0.149481
     6  C    0.000452  -0.002415  -0.169247   0.171231   0.149481   5.531235
     7  C    0.000007  -0.000023  -0.002953   0.023554  -0.194333   0.173900
     8  C   -0.000001   0.000005   0.000350  -0.001796   0.023541   0.172140
     9  C   -0.000002   0.000005  -0.000655   0.000375  -0.002609  -0.173422
    10  C    0.000000  -0.000001   0.000002   0.000007  -0.000030  -0.002609
    11  C   -0.000001   0.000000  -0.000000  -0.000001   0.000007   0.000375
    12  C    0.000002  -0.000002   0.000146  -0.000000   0.000002  -0.000655
    13  C    0.000011  -0.000001  -0.000002   0.000000  -0.000001   0.000005
    14  C   -0.000133   0.000011   0.000002  -0.000001   0.000000  -0.000002
    15  C    0.000352   0.000055  -0.000546   0.000009  -0.000004   0.000115
    16  C    0.031267  -0.006867   0.027499   0.000521  -0.000300  -0.001316
    17  C    0.161341  -0.200364  -0.003449   0.039947  -0.008012   0.026783
    18  C    0.162728   0.167767  -0.176417  -0.003730   0.000541  -0.000709
    19  C   -0.179222   0.067986   0.067892   0.058729  -0.172879  -0.020863
    20  C   -0.008517   0.039897  -0.001163  -0.179841   0.066144   0.080358
    21  C   -0.000499   0.000570   0.028071  -0.008296   0.040761  -0.014562
    22  C    0.000992  -0.000470  -0.001122  -0.000373   0.000509   0.029007
    23  H    0.436009  -0.083730   0.016069  -0.000616   0.000013  -0.000001
    24  H   -0.084228   0.441730  -0.081224  -0.021848   0.001089  -0.000089
    25  H    0.000971  -0.021016  -0.085704   0.442180  -0.080265   0.016523
    26  H    0.000013  -0.000581   0.016554  -0.081110   0.442276  -0.085447
    27  H    0.000000  -0.000001  -0.000068   0.000961  -0.021769  -0.084245
    28  H    0.000000   0.000000  -0.000001   0.000014  -0.000594   0.016419
    29  H    0.000000   0.000000  -0.000000   0.000000  -0.000002  -0.000086
    30  H   -0.000000   0.000000  -0.000000   0.000000   0.000000  -0.000001
    31  H   -0.000000   0.000000  -0.000000   0.000000   0.000000  -0.000000
    32  H   -0.000001   0.000000   0.000000   0.000000  -0.000000  -0.000000
    33  H    0.001783  -0.000108   0.000047   0.000002  -0.000000   0.000001
    34  H   -0.091007   0.016888  -0.002194  -0.000010   0.000003   0.000002
               7          8          9         10         11         12
     1  C    0.000007  -0.000001  -0.000002   0.000000  -0.000001   0.000002
     2  C   -0.000023   0.000005   0.000005  -0.000001   0.000000  -0.000002
     3  C   -0.002953   0.000350  -0.000655   0.000002  -0.000000   0.000146
     4  C    0.023554  -0.001796   0.000375   0.000007  -0.000001  -0.000000
     5  C   -0.194333   0.023541  -0.002609  -0.000030   0.000007   0.000002
     6  C    0.173900   0.172140  -0.173422  -0.002609   0.000375  -0.000655
     7  C    5.571269   0.137224   0.172140   0.023541  -0.001796   0.000350
     8  C    0.137224   5.571269   0.173900  -0.194333   0.023554  -0.002953
     9  C    0.172140   0.173900   5.531235   0.149481   0.171231  -0.169247
    10  C    0.023541  -0.194333   0.149481   5.571361   0.153850   0.172172
    11  C   -0.001796   0.023554   0.171231   0.153850   5.576057   0.149525
    12  C    0.000350  -0.002953  -0.169247   0.172172   0.149525   5.482689
    13  C    0.000005  -0.000023  -0.002415   0.022659  -0.188535   0.204824
    14  C   -0.000001   0.000007   0.000452  -0.001898   0.025388   0.167685
    15  C    0.000001  -0.000001  -0.000709   0.000541  -0.003730  -0.176417
    16  C   -0.000327   0.000559   0.026783  -0.008012   0.039947  -0.003449
    17  C    0.000559  -0.000327  -0.001316  -0.000300   0.000521   0.027499
    18  C   -0.000001   0.000001   0.000115  -0.000004   0.000009  -0.000546
    19  C    0.039556  -0.007954   0.029007   0.000509  -0.000373  -0.001122
    20  C    0.063104  -0.177795  -0.014562   0.040761  -0.008296   0.028071
    21  C   -0.177795   0.063104   0.080358   0.066144  -0.179841  -0.001163
    22  C   -0.007954   0.039556  -0.020863  -0.172879   0.058729   0.067892
    23  H   -0.000000   0.000000  -0.000000  -0.000000   0.000000   0.000000
    24  H   -0.000002   0.000000  -0.000000   0.000000   0.000000  -0.000000
    25  H   -0.000599   0.000014  -0.000001   0.000000   0.000000  -0.000000
    26  H   -0.021775   0.000998  -0.000086  -0.000002   0.000000  -0.000000
    27  H    0.441471  -0.081506   0.016419  -0.000594   0.000014  -0.000001
    28  H   -0.081506   0.441471  -0.084245  -0.021769   0.000961  -0.000068
    29  H    0.000998  -0.021775  -0.085447   0.442276  -0.081110   0.016554
    30  H    0.000014  -0.000599   0.016523  -0.080265   0.442180  -0.085704
    31  H    0.000000  -0.000002  -0.000089   0.001089  -0.021848  -0.081224
    32  H    0.000000  -0.000000  -0.000001   0.000013  -0.000616   0.016069
    33  H    0.000000  -0.000000   0.000002   0.000003  -0.000010  -0.002194
    34  H   -0.000000   0.000000   0.000001  -0.000000   0.000002   0.000047
              13         14         15         16         17         18
     1  C    0.000011  -0.000133   0.000352   0.031267   0.161341   0.162728
     2  C   -0.000001   0.000011   0.000055  -0.006867  -0.200364   0.167767
     3  C   -0.000002   0.000002  -0.000546   0.027499  -0.003449  -0.176417
     4  C    0.000000  -0.000001   0.000009   0.000521   0.039947  -0.003730
     5  C   -0.000001   0.000000  -0.000004  -0.000300  -0.008012   0.000541
     6  C    0.000005  -0.000002   0.000115  -0.001316   0.026783  -0.000709
     7  C    0.000005  -0.000001   0.000001  -0.000327   0.000559  -0.000001
     8  C   -0.000023   0.000007  -0.000001   0.000559  -0.000327   0.000001
     9  C   -0.002415   0.000452  -0.000709   0.026783  -0.001316   0.000115
    10  C    0.022659  -0.001898   0.000541  -0.008012  -0.000300  -0.000004
    11  C   -0.188535   0.025388  -0.003730   0.039947   0.000521   0.000009
    12  C    0.204824   0.167685  -0.176417  -0.003449   0.027499  -0.000546
    13  C    5.563054   0.142536   0.167767  -0.200364  -0.006867   0.000055
    14  C    0.142536   5.238644   0.162728   0.161341   0.031267   0.000352
    15  C    0.167767   0.162728   5.510488   0.254160  -0.167014  -0.025245
    16  C   -0.200364   0.161341   0.254160   5.739234   0.213077  -0.167014
    17  C   -0.006867   0.031267  -0.167014   0.213077   5.739234   0.254160
    18  C    0.000055   0.000352  -0.025245  -0.167014   0.254160   5.510488
    19  C   -0.000470   0.000992   0.019231  -0.034752   0.124984   0.040494
    20  C    0.000570  -0.000499  -0.001045  -0.137655  -0.079769   0.029347
    21  C    0.039897  -0.008517   0.029347  -0.079769  -0.137655  -0.001045
    22  C    0.067986  -0.179222   0.040494   0.124984  -0.034752   0.019231
    23  H    0.000000  -0.000001  -0.000003  -0.000362   0.015702  -0.078540
    24  H    0.000000  -0.000000   0.000000   0.000041  -0.001600   0.015814
    25  H    0.000000  -0.000000   0.000000   0.000010  -0.000263  -0.000064
    26  H    0.000000   0.000000  -0.000000  -0.000001   0.000059  -0.000001
    27  H    0.000000   0.000000  -0.000000  -0.000001   0.000011  -0.000000
    28  H   -0.000001   0.000000  -0.000000   0.000011  -0.000001  -0.000000
    29  H   -0.000581   0.000013  -0.000001   0.000059  -0.000001  -0.000000
    30  H   -0.021016   0.000971  -0.000064  -0.000263   0.000010   0.000000
    31  H    0.441730  -0.084228   0.015814  -0.001600   0.000041   0.000000
    32  H   -0.083730   0.436009  -0.078540   0.015702  -0.000362  -0.000003
    33  H    0.016888  -0.091007   0.423299  -0.041607  -0.050523   0.011932
    34  H   -0.000108   0.001783   0.011932  -0.050523  -0.041607   0.423299
              19         20         21         22         23         24
     1  C   -0.179222  -0.008517  -0.000499   0.000992   0.436009  -0.084228
     2  C    0.067986   0.039897   0.000570  -0.000470  -0.083730   0.441730
     3  C    0.067892  -0.001163   0.028071  -0.001122   0.016069  -0.081224
     4  C    0.058729  -0.179841  -0.008296  -0.000373  -0.000616  -0.021848
     5  C   -0.172879   0.066144   0.040761   0.000509   0.000013   0.001089
     6  C   -0.020863   0.080358  -0.014562   0.029007  -0.000001  -0.000089
     7  C    0.039556   0.063104  -0.177795  -0.007954  -0.000000  -0.000002
     8  C   -0.007954  -0.177795   0.063104   0.039556   0.000000   0.000000
     9  C    0.029007  -0.014562   0.080358  -0.020863  -0.000000  -0.000000
    10  C    0.000509   0.040761   0.066144  -0.172879  -0.000000   0.000000
    11  C   -0.000373  -0.008296  -0.179841   0.058729   0.000000   0.000000
    12  C   -0.001122   0.028071  -0.001163   0.067892   0.000000  -0.000000
    13  C   -0.000470   0.000570   0.039897   0.067986   0.000000   0.000000
    14  C    0.000992  -0.000499  -0.008517  -0.179222  -0.000001  -0.000000
    15  C    0.019231  -0.001045   0.029347   0.040494  -0.000003   0.000000
    16  C   -0.034752  -0.137655  -0.079769   0.124984  -0.000362   0.000041
    17  C    0.124984  -0.079769  -0.137655  -0.034752   0.015702  -0.001600
    18  C    0.040494   0.029347  -0.001045   0.019231  -0.078540   0.015814
    19  C    5.952701   0.141625  -0.073152  -0.156618  -0.001301   0.017052
    20  C    0.141625   5.951966   0.148022  -0.073152   0.000074  -0.000271
    21  C   -0.073152   0.148022   5.951966   0.141625  -0.000002   0.000013
    22  C   -0.156618  -0.073152   0.141625   5.952701   0.000010  -0.000000
    23  H   -0.001301   0.000074  -0.000002   0.000010   0.674646  -0.012403
    24  H    0.017052  -0.000271   0.000013  -0.000000  -0.012403   0.680671
    25  H    0.016737  -0.001684   0.000068  -0.000001  -0.000016   0.006660
    26  H   -0.001671   0.017372  -0.000275   0.000014  -0.000000  -0.000018
    27  H   -0.000284   0.017351  -0.001596   0.000064  -0.000000  -0.000000
    28  H    0.000064  -0.001596   0.017351  -0.000284   0.000000  -0.000000
    29  H    0.000014  -0.000275   0.017372  -0.001671   0.000000  -0.000000
    30  H   -0.000001   0.000068  -0.001684   0.016737  -0.000000   0.000000
    31  H   -0.000000   0.000013  -0.000271   0.017052  -0.000000  -0.000000
    32  H    0.000010  -0.000002   0.000074  -0.001301  -0.000000  -0.000000
    33  H   -0.002304  -0.000052  -0.000039   0.023846   0.000031  -0.000000
    34  H    0.023846  -0.000039  -0.000052  -0.002304  -0.013450  -0.000378
              25         26         27         28         29         30
     1  C    0.000971   0.000013   0.000000   0.000000   0.000000  -0.000000
     2  C   -0.021016  -0.000581  -0.000001   0.000000   0.000000   0.000000
     3  C   -0.085704   0.016554  -0.000068  -0.000001  -0.000000  -0.000000
     4  C    0.442180  -0.081110   0.000961   0.000014   0.000000   0.000000
     5  C   -0.080265   0.442276  -0.021769  -0.000594  -0.000002   0.000000
     6  C    0.016523  -0.085447  -0.084245   0.016419  -0.000086  -0.000001
     7  C   -0.000599  -0.021775   0.441471  -0.081506   0.000998   0.000014
     8  C    0.000014   0.000998  -0.081506   0.441471  -0.021775  -0.000599
     9  C   -0.000001  -0.000086   0.016419  -0.084245  -0.085447   0.016523
    10  C    0.000000  -0.000002  -0.000594  -0.021769   0.442276  -0.080265
    11  C    0.000000   0.000000   0.000014   0.000961  -0.081110   0.442180
    12  C   -0.000000  -0.000000  -0.000001  -0.000068   0.016554  -0.085704
    13  C    0.000000   0.000000   0.000000  -0.000001  -0.000581  -0.021016
    14  C   -0.000000   0.000000   0.000000   0.000000   0.000013   0.000971
    15  C    0.000000  -0.000000  -0.000000  -0.000000  -0.000001  -0.000064
    16  C    0.000010  -0.000001  -0.000001   0.000011   0.000059  -0.000263
    17  C   -0.000263   0.000059   0.000011  -0.000001  -0.000001   0.000010
    18  C   -0.000064  -0.000001  -0.000000  -0.000000  -0.000000   0.000000
    19  C    0.016737  -0.001671  -0.000284   0.000064   0.000014  -0.000001
    20  C   -0.001684   0.017372   0.017351  -0.001596  -0.000275   0.000068
    21  C    0.000068  -0.000275  -0.001596   0.017351   0.017372  -0.001684
    22  C   -0.000001   0.000014   0.000064  -0.000284  -0.001671   0.016737
    23  H   -0.000016  -0.000000  -0.000000   0.000000   0.000000  -0.000000
    24  H    0.006660  -0.000018  -0.000000  -0.000000  -0.000000   0.000000
    25  H    0.680092  -0.012701  -0.000017  -0.000000  -0.000000   0.000000
    26  H   -0.012701   0.682203   0.006721  -0.000018  -0.000000  -0.000000
    27  H   -0.000017   0.006721   0.682284  -0.012605  -0.000018  -0.000000
    28  H   -0.000000  -0.000018  -0.012605   0.682284   0.006721  -0.000017
    29  H   -0.000000  -0.000000  -0.000018   0.006721   0.682203  -0.012701
    30  H    0.000000  -0.000000  -0.000000  -0.000017  -0.012701   0.680092
    31  H    0.000000  -0.000000  -0.000000  -0.000000  -0.000018   0.006660
    32  H   -0.000000   0.000000   0.000000  -0.000000  -0.000000  -0.000016
    33  H    0.000000   0.000000  -0.000000   0.000000   0.000000  -0.000001
    34  H   -0.000001   0.000000   0.000000  -0.000000   0.000000   0.000000
              31         32         33         34
     1  C   -0.000000  -0.000001   0.001783  -0.091007
     2  C    0.000000   0.000000  -0.000108   0.016888
     3  C   -0.000000   0.000000   0.000047  -0.002194
     4  C    0.000000   0.000000   0.000002  -0.000010
     5  C    0.000000  -0.000000  -0.000000   0.000003
     6  C   -0.000000  -0.000000   0.000001   0.000002
     7  C    0.000000   0.000000   0.000000  -0.000000
     8  C   -0.000002  -0.000000  -0.000000   0.000000
     9  C   -0.000089  -0.000001   0.000002   0.000001
    10  C    0.001089   0.000013   0.000003  -0.000000
    11  C   -0.021848  -0.000616  -0.000010   0.000002
    12  C   -0.081224   0.016069  -0.002194   0.000047
    13  C    0.441730  -0.083730   0.016888  -0.000108
    14  C   -0.084228   0.436009  -0.091007   0.001783
    15  C    0.015814  -0.078540   0.423299   0.011932
    16  C   -0.001600   0.015702  -0.041607  -0.050523
    17  C    0.000041  -0.000362  -0.050523  -0.041607
    18  C    0.000000  -0.000003   0.011932   0.423299
    19  C   -0.000000   0.000010  -0.002304   0.023846
    20  C    0.000013  -0.000002  -0.000052  -0.000039
    21  C   -0.000271   0.000074  -0.000039  -0.000052
    22  C    0.017052  -0.001301   0.023846  -0.002304
    23  H   -0.000000  -0.000000   0.000031  -0.013450
    24  H   -0.000000  -0.000000  -0.000000  -0.000378
    25  H    0.000000  -0.000000   0.000000  -0.000001
    26  H   -0.000000   0.000000   0.000000   0.000000
    27  H   -0.000000   0.000000  -0.000000   0.000000
    28  H   -0.000000  -0.000000   0.000000  -0.000000
    29  H   -0.000018  -0.000000   0.000000   0.000000
    30  H    0.006660  -0.000016  -0.000001   0.000000
    31  H    0.680671  -0.012403  -0.000378  -0.000000
    32  H   -0.012403   0.674646  -0.013450   0.000031
    33  H   -0.000378  -0.013450   0.689316  -0.001884
    34  H   -0.000000   0.000031  -0.001884   0.689316
 Mulliken charges:
               1
     1  C   -0.004671
     2  C   -0.163871
     3  C    0.191218
     4  C   -0.156193
     5  C   -0.161713
     6  C    0.187643
     7  C   -0.158629
     8  C   -0.158629
     9  C    0.187643
    10  C   -0.161713
    11  C   -0.156193
    12  C    0.191218
    13  C   -0.163871
    14  C   -0.004671
    15  C   -0.183013
    16  C    0.098986
    17  C    0.098986
    18  C   -0.183013
    19  C    0.051537
    20  C    0.061470
    21  C    0.061470
    22  C    0.051537
    23  H    0.047870
    24  H    0.038992
    25  H    0.039078
    26  H    0.037478
    27  H    0.037410
    28  H    0.037410
    29  H    0.037478
    30  H    0.039078
    31  H    0.038992
    32  H    0.047870
    33  H    0.036406
    34  H    0.036406
 Sum of Mulliken charges =  -0.00000
 Mulliken charges with hydrogens summed into heavy atoms:
               1
     1  C    0.043199
     2  C   -0.124879
     3  C    0.191218
     4  C   -0.117115
     5  C   -0.124235
     6  C    0.187643
     7  C   -0.121218
     8  C   -0.121218
     9  C    0.187643
    10  C   -0.124235
    11  C   -0.117115
    12  C    0.191218
    13  C   -0.124879
    14  C    0.043199
    15  C   -0.146606
    16  C    0.098986
    17  C    0.098986
    18  C   -0.146606
    19  C    0.051537
    20  C    0.061470
    21  C    0.061470
    22  C    0.051537
 Electronic spatial extent (au):  <R**2>=           5395.0714
 Charge=              0.0000 electrons
 Dipole moment (field-independent basis, Debye):
    X=             -0.0000    Y=             -0.0000    Z=             -0.0673  Tot=              0.0673
 Quadrupole moment (field-independent basis, Debye-Ang):
   XX=           -132.5558   YY=           -109.7083   ZZ=           -109.7646
   XY=             -0.0000   XZ=             -0.0000   YZ=              0.0000
 Traceless Quadrupole moment (field-independent basis, Debye-Ang):
   XX=            -15.2129   YY=              7.6346   ZZ=              7.5783
   XY=             -0.0000   XZ=             -0.0000   YZ=              0.0000
 Octapole moment (field-independent basis, Debye-Ang**2):
  XXX=              0.0000  YYY=             -0.0000  ZZZ=             -1.5777  XYY=              0.0000
  XXY=              0.0000  XXZ=              0.2345  XZZ=              0.0000  YZZ=             -0.0000
  YYZ=             -2.1979  XYZ=              0.0000
 Hexadecapole moment (field-independent basis, Debye-Ang**3):
 XXXX=           -146.2048 YYYY=          -3871.9952 ZZZZ=          -2913.9378 XXXY=             -0.0000
 XXXZ=             -0.0000 YYYX=             -0.0000 YYYZ=             -0.0000 ZZZX=             -0.0000
 ZZZY=              0.0000 XXYY=           -803.0610 XXZZ=           -610.8565 YYZZ=          -1129.8902
 XXYZ=             -0.0000 YYXZ=             -0.0000 ZZXY=             -0.0000
 N-N= 1.602182298708D+03 E-N=-5.159867374205D+03  KE= 8.365292167164D+02
 Symmetry A1   KE= 4.102491699763D+02
 Symmetry A2   KE= 1.107608769635D+01
 Symmetry B1   KE= 1.256113955006D+01
 Symmetry B2   KE= 4.026428194936D+02
   4 Symmetry operations used in ECPInt.
 ECPInt:  NShTT=   12246 NPrTT=   49150 LenC2=   11629 LenP2D=   32086.
 LDataN:  DoStor=T MaxTD1= 5 Len=  102
 Calling FoFJK, ICntrl=      2127 FMM=F ISym2X=1 I1Cent= 0 IOpClX= 0 NMat=1 NMatS=1 NMatT=0.
 ***** Axes restored to original set *****
 -------------------------------------------------------------------
 Center     Atomic                   Forces (Hartrees/Bohr)
 Number     Number              X              Y              Z
 -------------------------------------------------------------------
      1        6          -0.001417101    0.006890836    0.000429916
      2        6           0.007411465   -0.011795606   -0.001175330
      3        6           0.006665317   -0.011981365   -0.001117792
      4        6          -0.023166363    0.039224053    0.003777983
      5        6          -0.013252057   -0.043096461   -0.000739699
      6        6           0.005840132    0.004948878   -0.000295652
      7        6           0.016407423    0.026007174   -0.000294848
      8        6          -0.029242192   -0.009266154    0.002167062
      9        6          -0.006260175   -0.004400995    0.000356924
     10        6           0.044889902    0.001829665   -0.003875329
     11        6          -0.031839281    0.032522514    0.004245719
     12        6           0.009830836   -0.009535378   -0.001288510
     13        6           0.009460980   -0.010211952   -0.001285862
     14        6          -0.006272497    0.003139085    0.000691770
     15        6          -0.007913873   -0.002193751    0.000600374
     16        6           0.029454863    0.001801113   -0.002516244
     17        6          -0.009273728   -0.028124359   -0.000427588
     18        6           0.004138053    0.007118738   -0.000049593
     19        6           0.001469768    0.000292303   -0.000116598
     20        6          -0.004239688    0.001719467    0.000449772
     21        6          -0.000570471    0.004554660    0.000251889
     22        6          -0.000657670   -0.001351563   -0.000001864
     23        1           0.001400076   -0.004507330   -0.000322910
     24        1          -0.005649045   -0.000010712    0.000497398
     25        1          -0.001412962   -0.004662145   -0.000081839
     26        1          -0.002859560    0.003996989    0.000428950
     27        1          -0.004923615   -0.000960853    0.000391405
     28        1           0.002185486    0.004532329    0.000008007
     29        1          -0.003116776    0.003798239    0.000442821
     30        1           0.004850876    0.000177905   -0.000419651
     31        1           0.001456275    0.005479548    0.000114204
     32        1           0.003981764   -0.002512467   -0.000462142
     33        1          -0.002926440   -0.004986170    0.000037207
     34        1           0.005550279    0.001563767   -0.000419948
 -------------------------------------------------------------------
 Cartesian Forces:  Max     0.044889902 RMS     0.011454405

 GradGradGradGradGradGradGradGradGradGradGradGradGradGradGradGradGradGrad
 Berny optimization.
 FormGI is forming the generalized inverse of G from B-inverse, IUseBI=4.
 Internal  Forces:  Max     0.028067077 RMS     0.005928523
 Search for a local minimum.
 Step number   1 out of a maximum of  204
 All quantities printed in internal units (Hartrees-Bohrs-Radians)
 Mixed Optimization -- RFO/linear search
 Second derivative matrix not updated -- first step.
 ITU=  0
     Eigenvalues ---    0.01759   0.01777   0.01796   0.01862   0.01863
     Eigenvalues ---    0.01896   0.01911   0.01945   0.01979   0.01995
     Eigenvalues ---    0.01995   0.02000   0.02006   0.02012   0.02020
     Eigenvalues ---    0.02027   0.02121   0.02126   0.02130   0.02131
     Eigenvalues ---    0.02134   0.02134   0.02152   0.02157   0.02157
     Eigenvalues ---    0.02172   0.02173   0.02180   0.02180   0.02216
     Eigenvalues ---    0.02216   0.16000   0.16000   0.16000   0.16000
     Eigenvalues ---    0.16000   0.16000   0.16000   0.16000   0.16000
     Eigenvalues ---    0.16000   0.16000   0.16000   0.22122   0.22154
     Eigenvalues ---    0.22471   0.22591   0.22706   0.23502   0.23550
     Eigenvalues ---    0.24377   0.24539   0.24733   0.24940   0.24981
     Eigenvalues ---    0.25000   0.25000   0.32463   0.32977   0.35059
     Eigenvalues ---    0.35059   0.35080   0.35080   0.35085   0.35085
     Eigenvalues ---    0.35112   0.35112   0.35178   0.35178   0.35271
     Eigenvalues ---    0.35271   0.37023   0.37037   0.38836   0.39740
     Eigenvalues ---    0.40139   0.41455   0.41630   0.41909   0.41968
     Eigenvalues ---    0.42723   0.44338   0.44559   0.44846   0.44970
     Eigenvalues ---    0.45020   0.45086   0.45206   0.45229   0.45462
     Eigenvalues ---    0.45528   0.46331   0.46377   0.46388   0.47167
     Eigenvalues ---    0.47198
 RFO step:  Lambda=-1.78500849D-02 EMin= 1.75945232D-02
 Linear search not attempted -- first point.
 Iteration  1 RMS(Cart)=  0.02883162 RMS(Int)=  0.00020980
 Iteration  2 RMS(Cart)=  0.00028559 RMS(Int)=  0.00003735
 Iteration  3 RMS(Cart)=  0.00000005 RMS(Int)=  0.00003735
 ClnCor:  largest displacement from symmetrization is 1.41D-08 for atom    33.
 Variable       Old X    -DE/DX   Delta X   Delta X   Delta X     New X
                                 (Linear)    (Quad)   (Total)
    R1        2.62051   0.00539   0.00000   0.01051   0.01045   2.63096
    R2        2.63711   0.00393   0.00000   0.00664   0.00656   2.64367
    R3        2.05388   0.00464   0.00000   0.01256   0.01256   2.06643
    R4        2.64017   0.01204   0.00000   0.02630   0.02632   2.66649
    R5        2.05493   0.00452   0.00000   0.01226   0.01226   2.06719
    R6        2.64421   0.02746   0.00000   0.05698   0.05693   2.70114
    R7        2.68661   0.00956   0.00000   0.02425   0.02437   2.71099
    R8        2.63167  -0.01731   0.00000  -0.03713  -0.03722   2.59445
    R9        2.05579   0.00387   0.00000   0.01051   0.01051   2.06629
   R10        2.64093   0.02807   0.00000   0.05788   0.05784   2.69877
   R11        2.05537   0.00416   0.00000   0.01129   0.01129   2.06665
   R12        2.64364   0.01896   0.00000   0.03890   0.03885   2.68249
   R13        2.67821   0.00858   0.00000   0.02101   0.02110   2.69931
   R14        2.63203  -0.00885   0.00000  -0.02002  -0.02010   2.61193
   R15        2.05544   0.00415   0.00000   0.01125   0.01125   2.06670
   R16        2.64364   0.01896   0.00000   0.03890   0.03885   2.68249
   R17        2.05544   0.00415   0.00000   0.01125   0.01125   2.06670
   R18        2.64093   0.02807   0.00000   0.05788   0.05784   2.69877
   R19        2.67821   0.00858   0.00000   0.02101   0.02110   2.69931
   R20        2.63167  -0.01731   0.00000  -0.03713  -0.03722   2.59445
   R21        2.05537   0.00416   0.00000   0.01129   0.01129   2.06665
   R22        2.64421   0.02746   0.00000   0.05698   0.05693   2.70114
   R23        2.05579   0.00387   0.00000   0.01051   0.01051   2.06629
   R24        2.64017   0.01204   0.00000   0.02630   0.02632   2.66649
   R25        2.68661   0.00956   0.00000   0.02425   0.02437   2.71099
   R26        2.62051   0.00539   0.00000   0.01051   0.01045   2.63096
   R27        2.05493   0.00452   0.00000   0.01226   0.01226   2.06719
   R28        2.63711   0.00393   0.00000   0.00664   0.00656   2.64367
   R29        2.05388   0.00464   0.00000   0.01256   0.01256   2.06643
   R30        2.67852  -0.01021   0.00000  -0.02417  -0.02419   2.65433
   R31        2.05237   0.00424   0.00000   0.01145   0.01145   2.06382
   R32        2.71552   0.01720   0.00000   0.03986   0.03982   2.75534
   R33        2.68321   0.01008   0.00000   0.02257   0.02261   2.70582
   R34        2.67852  -0.01021   0.00000  -0.02417  -0.02419   2.65433
   R35        2.68321   0.01008   0.00000   0.02257   0.02261   2.70582
   R36        2.05237   0.00424   0.00000   0.01145   0.01145   2.06382
   R37        2.67442   0.01274   0.00000   0.03062   0.03072   2.70515
   R38        2.66812   0.01355   0.00000   0.03292   0.03304   2.70116
   R39        2.67442   0.01274   0.00000   0.03062   0.03072   2.70515
    A1        2.09231   0.00343   0.00000   0.01193   0.01183   2.10415
    A2        2.09645  -0.00077   0.00000  -0.00067  -0.00062   2.09583
    A3        2.09442  -0.00266   0.00000  -0.01126  -0.01121   2.08321
    A4        2.09815  -0.00016   0.00000   0.00231   0.00231   2.10046
    A5        2.07697   0.00359   0.00000   0.01861   0.01861   2.09558
    A6        2.10806  -0.00343   0.00000  -0.02091  -0.02092   2.08715
    A7        2.09303   0.00877   0.00000   0.02853   0.02842   2.12145
    A8        2.09467  -0.00557   0.00000  -0.01587  -0.01576   2.07890
    A9        2.09549  -0.00320   0.00000  -0.01266  -0.01266   2.08283
   A10        2.10600   0.00251   0.00000   0.00830   0.00825   2.11425
   A11        2.10474  -0.00430   0.00000  -0.02125  -0.02122   2.08352
   A12        2.07244   0.00179   0.00000   0.01295   0.01298   2.08541
   A13        2.10264   0.00282   0.00000   0.00957   0.00952   2.11216
   A14        2.07463   0.00131   0.00000   0.01053   0.01056   2.08519
   A15        2.10591  -0.00413   0.00000  -0.02010  -0.02007   2.08584
   A16        2.10276   0.00655   0.00000   0.02218   0.02209   2.12485
   A17        2.08940  -0.00272   0.00000  -0.00903  -0.00899   2.08041
   A18        2.09102  -0.00383   0.00000  -0.01315  -0.01310   2.07792
   A19        2.10377   0.00320   0.00000   0.01036   0.01032   2.11409
   A20        2.10510  -0.00453   0.00000  -0.02164  -0.02162   2.08348
   A21        2.07432   0.00133   0.00000   0.01128   0.01130   2.08562
[...]
 3,0.00003064,-0.00000382,-0.00000533,-0.00001553,0.00003842,0.00002093
 ,0.00003984,-0.00000559,-0.00001156,-0.00004733,-0.00000055,-0.0003196
 8,-0.00007140,0.00002843,0.00079284,-0.00067897,-0.00011336,-0.0034885
 2,-0.00011121,0.00013396,-0.00031393,0.00063808,0.00006502,0.00000141,
 -0.00001134,-0.00000065,-0.00000753,-0.00001425,-0.00000019,-0.0000076
 7,-0.00000594,0.00000050,-0.00002711,-0.00000306,0.00000209,-0.0000509
 7,-0.00002005,-0.00000132,-0.00096171,0.00053457,0.00010118,-0.0426491
 0,0.34780092,-0.00000092,0.00000132,-0.00000365,-0.00000002,-0.0000002
 0,-0.00001152,-0.00000160,0.00000416,-0.00000536,-0.00000298,0.0000028
 1,-0.00000868,0.00000467,-0.00000883,0.00002999,-0.00001646,0.00002628
 ,-0.00004818,-0.00003087,-0.00002074,-0.00007853,-0.00023800,0.0002808
 9,-0.00247868,-0.00001352,0.00127683,0.00372791,0.00391180,-0.01620364
 ,-0.03954365,0.00038300,-0.00326663,0.00483139,0.00132980,-0.00036510,
 0.00907247,-0.00005152,-0.00013074,0.00014575,-0.00002255,0.00001245,-
 0.00073920,0.00002567,0.00000101,0.00015011,-0.00009253,0.00004923,-0.
 00086264,0.00001633,-0.00000848,0.00012262,-0.00000370,-0.00000109,-0.
 00001170,0.00001028,0.00000653,-0.00007772,0.00000562,0.00005303,0.000
 30529,0.00053051,-0.00001229,0.00376105,0.00002668,0.00003278,-0.00020
 669,-0.00000013,-0.00000082,0.00000051,-0.00000021,0.00000026,0.000004
 97,-0.00000039,-0.00000072,-0.00000199,0.00000027,0.00000061,0.0000037
 9,0.00000559,-0.00000715,0.00011050,0.00000650,-0.00004679,0.00016084,
 -0.00522358,0.01801801,0.02692480,0.00001109,-0.00000126,-0.00000741,-
 0.00000002,0.00000777,0.00000111,0.00000918,-0.00003886,-0.00000139,-0
 .00001746,0.00000594,0.00000145,0.00002579,-0.00002673,0.00000205,-0.0
 0000165,0.00013051,0.00001978,-0.00040959,0.00020965,-0.00001052,-0.00
 040383,-0.00127329,-0.00000114,-0.00293057,0.00399229,0.00123153,-0.01
 854973,-0.02026428,0.00118135,-0.22994371,-0.13388515,0.01098447,0.005
 43960,0.00412490,0.00002565,0.00068833,0.00166189,-0.00020551,0.000116
 16,-0.00036673,-0.00003525,0.00025653,0.00011734,-0.00002405,0.0001059
 8,0.00030389,0.00001994,-0.00001242,0.00005895,0.00000784,0.00001157,0
 .00000056,-0.00000152,-0.00003479,-0.00000960,0.00001260,0.00011193,-0
 .00001665,-0.00008989,0.00012890,0.00049809,-0.00001402,0.00051667,0.0
 0117160,0.00033953,0.00000168,-0.00000754,-0.00000023,-0.00000674,-0.0
 0000511,0.00000142,-0.00000465,-0.00001042,-0.00000062,-0.00000599,0.0
 0000736,0.00000068,-0.00011237,-0.00008681,0.00000277,0.00001337,0.000
 06069,0.00001688,0.00116889,0.00023103,-0.00058867,0.24363155,0.000031
 02,-0.00004494,-0.00000152,-0.00002184,0.00000341,0.00000169,-0.000001
 62,0.00000520,-0.00000020,0.00003404,-0.00002502,-0.00000393,-0.000020
 95,0.00005507,0.00000152,0.00001625,-0.00012618,-0.00001398,0.00015150
 ,0.00005505,0.00001716,0.00016528,0.00046258,-0.00000395,0.00246613,-0
 .00038271,-0.00063434,0.01120747,0.01100240,-0.00072348,-0.13427963,-0
 .16196545,0.00635023,-0.02489798,-0.01453951,0.00138881,-0.00208877,0.
 00128346,0.00035060,0.00030284,0.00007864,-0.00001880,0.00001835,0.000
 10613,0.00000641,-0.00158032,-0.00022613,0.00012132,0.00030748,-0.0003
 3100,-0.00004383,-0.00017928,-0.00003502,0.00001451,0.00002707,0.00003
 245,-0.00000595,-0.00013216,0.00002380,0.00005252,0.00081990,-0.000190
 55,-0.00006829,0.00287783,-0.00445688,-0.00061827,-0.00001445,-0.00001
 374,0.00000054,-0.00000543,-0.00000297,-0.00000018,-0.00000678,-0.0000
 0006,0.00000088,-0.00000647,-0.00000138,0.00000060,0.00004821,0.000032
 05,-0.00000118,-0.00001109,-0.00000924,-0.00000715,-0.00044813,0.00093
 016,0.00032972,0.14381381,0.16832203,-0.00000598,0.00000132,-0.0000717
 8,-0.00000020,-0.00000092,0.00000864,0.00000026,0.00000308,0.00001308,
 0.00000270,-0.00000146,-0.00000427,0.00000230,0.00000203,0.00006231,0.
 00001472,-0.00002405,0.00015488,-0.00001309,0.00001203,-0.00063253,0.0
 0006254,0.00012284,0.00022267,0.00116398,-0.00076885,0.00890115,0.0025
 7444,0.00205025,0.00489582,0.01096701,0.00631546,-0.03875364,-0.001259
 04,-0.00116909,0.00371814,-0.00037154,0.00002004,-0.00244456,-0.000005
 61,0.00004021,-0.00009735,-0.00002843,-0.00000231,-0.00007289,-0.00006
 346,-0.00004474,0.00018325,0.00001884,-0.00002192,0.00004431,-0.000009
 48,-0.00000134,-0.00000518,0.00001422,-0.00000272,0.00011162,-0.000095
 00,0.00004234,-0.00088935,0.00000022,-0.00003992,-0.00028216,0.0004150
 6,-0.00046789,0.00372344,-0.00000053,-0.00000007,0.00000294,0.00000140
 ,-0.00000021,0.00001176,-0.00000046,0.00000120,-0.00000639,0.00000007,
 -0.00000062,-0.00000203,0.00000874,0.00001072,-0.00003769,0.00001370,-
 0.00001348,0.00017257,-0.00061874,0.00026987,-0.00555999,-0.01286447,-
 0.00635008,0.02628943,0.00004594,-0.00003200,-0.00001383,-0.00001855,0
 .00002931,0.00000187,0.00000823,-0.00001611,0.00000191,0.00000431,-0.0
 0000989,-0.00000018,-0.00003432,0.00004101,-0.00000267,-0.00006132,-0.
 00010792,0.00000003,-0.00004486,-0.00000172,0.00000502,0.00009594,0.00
 006433,-0.00000447,0.00014031,-0.00009281,-0.00001724,0.00010986,0.000
 39801,0.00000049,0.00103428,-0.00233055,-0.00052105,-0.01803264,-0.019
 52847,0.00106629,-0.22670711,-0.13454405,0.01076810,0.00718327,0.00502
 856,-0.00005237,0.00121141,0.00117300,0.00055749,-0.00009769,0.0008180
 3,-0.00000189,0.00013367,0.00003190,-0.00009835,-0.00004189,-0.0000360
 1,0.00001054,-0.00001836,0.00009374,0.00001673,-0.00030320,0.00029165,
 0.00003652,-0.00047814,-0.00144743,0.00000110,-0.00327753,0.00369023,0
 .00095285,-0.00000337,-0.00000747,0.00000015,-0.00000422,-0.00000583,0
 .00000180,-0.00000571,-0.00000538,0.00000131,-0.00001792,-0.00000694,0
 .00000171,-0.00000381,0.00000614,0.00000035,-0.00002347,0.00002173,0.0
 0000417,-0.00002507,0.00002328,0.00002299,0.00016884,0.00130236,0.0000
 5832,0.23817256,-0.00004732,0.00005537,0.00001082,-0.00000001,-0.00003
 949,-0.00000121,-0.00002501,0.00002439,0.00000160,0.00000978,-0.000012
 55,-0.00000174,0.00002499,0.00000297,0.00000170,0.00006125,-0.00002517
 ,-0.00000621,0.00003417,0.00010094,0.00000089,-0.00013556,-0.00005747,
 0.00000883,0.00022819,0.00022179,-0.00000991,-0.00038707,0.00013149,0.
 00004368,0.00168738,0.00072137,0.00004731,0.00941971,0.00939375,-0.000
 58586,-0.13473254,-0.16620281,0.00615334,-0.02629945,-0.01390484,0.001
 52251,0.00260121,-0.00464915,-0.00074259,0.00083215,-0.00019375,-0.000
 05846,-0.00011932,0.00001619,0.00005542,0.00004327,-0.00005488,-0.0000
 1048,-0.00001896,-0.00008759,-0.00000771,0.00005059,-0.00006287,-0.000
 00568,0.00045937,0.00041522,-0.00003367,0.00214977,-0.00049336,-0.0004
 6275,-0.00000109,-0.00000947,-0.00000041,-0.00001209,0.00000036,0.0000
 0024,-0.00000570,-0.00000402,-0.00000020,-0.00000183,0.00000736,0.0000
 0027,-0.00000872,-0.00000084,0.00000086,0.00000486,0.00000563,-0.00000
 075,-0.00005067,0.00002875,-0.00000418,-0.00033353,-0.00003458,0.00002
 005,0.14540847,0.17408756,-0.00001450,0.00000947,-0.00009317,0.0000005
 7,-0.00000380,-0.00001229,0.00000152,0.00000082,0.00003793,0.00000069,
 0.,0.00000715,-0.00000338,0.00000029,-0.00008495,0.00000752,0.00000870
 ,-0.00000704,0.00000660,0.00000405,0.00001251,-0.00001332,-0.00000879,
 0.00001373,-0.00000303,0.00001838,-0.00000761,-0.00003427,-0.00002552,
 -0.00008264,-0.00034319,0.00040143,-0.00365918,0.00234767,0.00196545,0
 .00375404,0.01075975,0.00613672,-0.03763081,-0.00143910,-0.00123855,0.
 00413550,0.00062071,-0.00061672,0.00686577,-0.00000126,-0.00005721,-0.
 00053238,-0.00010504,0.00004209,-0.00098712,0.00001405,-0.00000350,0.0
 0009442,0.00001174,-0.00001764,0.00012254,0.00002585,-0.00002693,-0.00
 003873,0.00008551,0.00013438,0.00025973,0.00088467,-0.00059852,0.00557
 606,0.00000043,0.00000015,0.00000204,0.00000152,-0.00000032,0.00001895
 ,0.00000130,-0.00000023,0.00001177,0.00000193,0.00000072,0.00000481,-0
 .00000031,-0.00000045,-0.00000288,0.00000342,-0.00000224,0.00001253,0.
 00001971,-0.00001070,0.00022186,-0.00001409,-0.00012412,0.00017222,-0.
 01234819,-0.00621762,0.02584775,0.00004212,0.00001191,-0.00000544,-0.0
 0004518,-0.00000905,0.00000609,-0.00007348,0.00005499,0.00000663,-0.00
 001647,-0.00002597,-0.00000066,0.00000941,-0.00000304,-0.00000158,-0.0
 0004900,0.00004668,0.00001167,-0.00001202,-0.00005867,-0.00000210,0.00
 005816,0.00001346,-0.00000040,-0.00006827,-0.00000507,0.00001563,0.000
 11365,0.00014308,-0.00004411,-0.00024850,-0.00010247,0.00003856,0.0017
 6641,0.00033414,0.00052399,-0.00032165,-0.00075113,0.00034184,-0.29522
 950,0.09564293,0.02687416,-0.01782945,0.01132432,0.00237804,-0.0014519
 7,-0.00398568,0.00053746,-0.00049060,0.00098764,0.00010852,-0.00007123
 ,-0.00003122,0.00001333,-0.00020473,-0.00033404,-0.00002815,0.00005397
 ,-0.00003802,0.00000200,0.00001281,0.00004325,-0.00007391,0.00054779,-
 0.00059769,-0.00011423,-0.00001279,-0.00002518,-0.00000010,-0.00001110
 ,-0.00000542,0.00000092,-0.00001803,-0.00000230,0.00000174,-0.00000917
 ,0.00000647,0.00000114,-0.00001099,0.00000242,0.00000100,-0.00000004,0
 .00000992,0.00000020,-0.00002228,0.00000558,-0.00000058,0.00001774,0.0
 0001447,0.00000834,0.00071585,0.00032141,-0.00042912,0.31178872,0.0000
 7359,-0.00002923,-0.00000665,-0.00003615,0.00005087,0.00000418,-0.0000
 4904,0.00003348,0.00000695,-0.00000737,-0.00000344,0.00000098,-0.00002
 531,-0.00000850,0.00000216,-0.00004366,0.00011588,0.00000632,-0.000051
 85,-0.00011193,-0.00000010,0.00014500,0.00004519,-0.00001285,-0.000268
 65,-0.00008623,0.00001492,0.00015679,-0.00048544,-0.00001500,0.0013239
 5,0.00039976,-0.00010964,-0.00076660,-0.00559136,-0.00051387,0.0304794
 8,-0.00634683,-0.00314136,0.09563326,-0.09759461,-0.01105136,-0.019547
 41,0.01061984,0.00203949,-0.00303942,-0.00222403,-0.00012485,-0.000522
 26,0.00078134,0.00006978,-0.00004258,-0.00002067,-0.00000140,-0.000179
 94,-0.00018158,0.00002359,0.00012976,-0.00009242,-0.00001976,-0.000054
 19,0.00015257,0.00004905,-0.00047574,-0.00073182,0.00002937,-0.0000072
 4,-0.00000426,0.00000051,0.00000096,-0.00000168,-0.00000025,-0.0000092
 1,0.00000613,0.00000096,0.00000458,0.00000069,-0.00000040,0.00000657,0
 .00000110,-0.00000049,-0.00000630,-0.00000005,0.00000068,0.00014089,-0
 .00005468,-0.00001344,-0.00005266,-0.00001964,-0.00000088,-0.00051466,
 0.00131333,0.00029448,-0.10292455,0.09902447,-0.00000271,-0.00000121,-
 0.00002538,0.00000489,0.00000179,0.00002808,0.00000203,-0.00000222,-0.
 00002610,0.00000017,0.00000262,-0.00001078,-0.00000256,0.00000020,-0.0
 0000673,0.00000767,-0.00000164,0.00005927,-0.00000179,0.00000050,-0.00
 000614,0.00000543,-0.00000126,0.00004637,0.00000396,-0.00000831,0.0001
 1088,-0.00004350,-0.00001379,-0.00045547,0.00010170,0.00001608,0.00023
 225,0.00047527,-0.00061088,0.00747510,0.00172425,-0.00038889,0.0037650
 6,0.02687373,-0.01105221,-0.04119893,0.00101151,-0.00068136,0.00334584
 ,0.00057935,-0.00004145,0.00659519,0.00004169,-0.00006329,0.00023824,0
 .00001283,-0.00000240,0.00009450,-0.00002133,0.00003718,-0.00035280,0.
 00000942,-0.00000498,0.00009467,-0.00007822,0.00004046,-0.00083885,-0.
 00010884,0.00004012,-0.00043680,0.00000069,0.00000209,-0.00000127,0.00
 000120,0.00000031,0.00000198,0.00000144,0.00000035,0.00000278,0.000001
 06,-0.00000056,0.00000042,0.00000119,-0.00000013,-0.00000093,-0.000000
 52,-0.00000075,-0.00000278,0.00000541,-0.00000151,-0.00003220,0.000005
 37,-0.00000680,0.00010432,-0.00046613,0.00022079,-0.00426372,-0.029727
 27,0.01229535,0.02934930,0.00023173,-0.00053138,-0.00008558,0.00014097
 ,0.00000024,-0.00001688,0.00009061,0.00004463,0.00000394,-0.00008224,-
 0.00005793,0.00000521,0.00008503,-0.00000066,-0.00001193,0.00009595,-0
 .00012080,-0.00001173,-0.00000581,0.00008575,0.00000732,-0.00005503,0.
 00011215,0.00000988,-0.00033835,0.00006062,0.00000295,-0.00018591,-0.0
 0001979,0.00002971,0.00022362,-0.00019866,-0.00010916,-0.00090617,-0.0
 0005848,0.00002763,-0.00346715,-0.00248566,0.00075866,0.00741538,-0.02
 607208,-0.00140171,-0.06686211,0.04965154,0.00472535,0.00117015,0.0289
 5133,0.00153228,0.00119271,-0.00019564,-0.00043688,-0.00250377,0.00046
 234,0.00025561,-0.00013417,0.00001562,-0.00000090,0.00014355,0.0000272
 5,-0.00000989,0.00071014,0.00143590,0.00003165,-0.00536507,0.00045029,
 0.00108742,0.00000723,0.00000665,0.00000204,0.00007422,-0.00002977,0.0
 0000118,0.00000934,-0.00000020,0.00000220,-0.00000638,-0.00001271,0.00
 000047,-0.00000380,-0.00000177,0.00000051,-0.00004943,0.00001986,-0.00
 000229,0.00000858,0.00000902,0.00000776,0.00000047,0.00007946,0.000006
 45,0.00016597,-0.00113660,-0.00005371,0.00104622,0.00049206,-0.0004193
 6,0.06867978,-0.00038893,0.00042071,0.00007381,-0.00008214,-0.00006357
 ,0.00000667,-0.00000976,-0.00009240,-0.00000823,0.00005496,0.00004265,
 -0.00000322,-0.00004770,-0.00000384,0.00000625,-0.00001632,-0.00002435
 ,-0.00000068,0.00007020,0.00003515,-0.00000614,-0.00006848,-0.00003205
 ,0.00000458,0.00024934,0.00003254,-0.00000569,-0.00000712,-0.00000463,
 -0.00000671,0.00000924,-0.00000015,0.00003969,-0.00021221,0.00078486,0
 .00007838,-0.00384216,-0.00035051,0.00004029,0.00593520,-0.01588832,-0
 .00143025,0.04929102,-0.32928150,-0.01722958,0.00141074,-0.00731660,-0
 .00062594,-0.00063626,-0.00194200,0.00013239,-0.00242886,-0.00110047,0
 .00015808,0.00019898,0.00016048,-0.00000369,-0.00017190,0.00002510,0.0
 0001548,-0.00021213,-0.00039047,-0.00001400,0.00188630,0.00116409,-0.0
 0041337,0.00004226,0.00001172,-0.00000440,-0.00003847,0.00002150,-0.00
 000020,0.00001140,0.00000606,-0.00000226,0.00000998,0.00000218,-0.0000
 0102,0.00000989,0.00000009,-0.00000100,0.00002012,-0.00001431,0.000001
 38,0.00001136,-0.00001926,-0.00000593,-0.00001748,0.00000644,0.0000003
 3,0.00027786,-0.00078114,-0.00006470,-0.00006545,0.00104853,0.00022743
 ,-0.04851253,0.35371033,-0.00007928,0.00008637,-0.00046161,-0.00002053
 ,-0.00000059,-0.00004895,0.00000153,-0.00001302,0.00011219,0.00001020,
 0.00000673,0.00000533,-0.00001401,0.00000210,-0.00004869,-0.00000711,0
 .00000853,0.00002448,0.00000663,-0.00000751,0.00003325,0.00000189,-0.0
 0001134,0.00000010,0.00001130,0.00001094,-0.00033586,0.00003027,-0.000
 00559,0.00015819,-0.00009996,0.00005801,-0.00090383,0.00002082,0.00006
 483,-0.00056228,0.00069861,-0.00007926,0.00632420,0.00001508,0.0013906
 7,0.00466580,0.00470940,-0.01726135,-0.03936279,0.00031320,-0.00305320
 ,0.00385260,-0.00045639,0.00009356,-0.00362170,0.00012763,-0.00009673,
 0.00014870,0.00000721,0.00001247,-0.00015235,-0.00001870,-0.00000207,0
 .00001924,-0.00004130,-0.00015924,0.00034467,0.00115098,-0.00028681,0.
 00663289,0.00000361,-0.00000126,0.00002662,0.00000080,-0.00000097,0.00
 010250,0.00000271,-0.00000124,0.00003411,0.00000148,0.00000098,0.00000
 526,0.00000103,0.00000003,0.00000279,-0.00000228,0.00000140,-0.0000851
 7,0.00000787,-0.00000573,0.00009121,0.00000215,-0.00000821,0.00003314,
 0.00000890,0.00005996,0.00012922,-0.00044404,0.00017830,-0.00391211,-0
 .00608898,0.01887204,0.02532907,-0.01917516,0.01300366,0.00267149,-0.0
 0206516,-0.00421484,0.00055855,0.00059752,-0.00061193,-0.00012940,-0.0
 0003885,0.00007901,-0.00007374,-0.00002193,-0.00005071,0.00001389,0.00
 008195,0.00013762,-0.00003069,-0.00002255,-0.00007711,-0.00000136,0.00
 007090,0.00004980,-0.00000103,-0.00004991,0.00002245,0.00000746,-0.000
 01027,-0.00002236,-0.00000449,0.00003347,0.00002420,-0.00000136,-0.000
 07032,0.00003301,0.00001761,-0.00007026,-0.00002599,0.00000057,0.00017
 498,-0.00037384,-0.00007361,-0.00166788,-0.00265106,0.00004412,-0.0019
 5423,0.00020028,-0.00014201,0.00080545,0.00150769,0.00034964,-0.285578
 51,0.10743153,0.02655928,0.00135294,0.00010048,0.00047985,-0.00001135,
 -0.00002034,0.00003078,-0.00000285,-0.00013299,-0.00000408,0.00019179,
 0.00011233,-0.00002535,0.00111700,-0.00008426,-0.00045111,-0.00092412,
 0.00056763,0.00011780,0.00002153,-0.00002308,0.00000005,-0.00001160,0.
 00001673,0.00000988,-0.00000727,0.00000891,-0.00000649,0.00000186,0.00
 000839,0.00000046,0.00000097,0.00000803,0.00000074,0.00000924,0.000011
 42,0.00000272,0.00000873,-0.00002106,0.00000734,0.00002359,0.00003791,
 0.00000198,-0.00152624,-0.00273095,0.00013927,0.30871655,-0.01900362,0
 .01091141,0.00195399,-0.00285835,-0.00176352,-0.00010896,-0.00045820,-
 0.00073066,0.00003298,-0.00012888,0.00026439,0.00006357,-0.00006338,-0
 .00016990,-0.00000907,-0.00005111,-0.00039107,0.00000204,0.00010351,-0
 .00006479,-0.00001202,0.00006536,-0.00004216,-0.00000914,-0.00008202,0
 .00012266,0.00001162,0.00002467,0.00009221,0.00000412,-0.00008869,-0.0
 0007397,0.00000428,0.00008741,0.00006979,-0.00000961,0.00005639,0.0001
 4932,0.00000389,-0.00051630,0.00047790,0.00008757,0.00024014,-0.001942
 93,-0.00011444,0.00064090,0.00122970,0.00016022,0.02904828,-0.00694903
 ,-0.00304547,0.10779204,-0.10884448,-0.01262791,-0.00133553,-0.0056067
 6,-0.00042913,0.00162769,0.00033669,-0.00014396,0.00006616,0.00017265,
 0.00000103,-0.00007103,-0.00016803,0.00000556,0.00047324,0.00097719,0.
 00017680,-0.00084682,0.00031752,0.00008305,0.00007386,-0.00001478,-0.0
 0000866,0.00001438,0.00000108,-0.00000530,0.00000866,-0.00005679,0.000
 00050,-0.00000327,-0.00000561,-0.00000009,-0.00001467,-0.00000522,0.00
 000082,-0.00000017,0.00000615,-0.00000124,-0.00001236,0.00008751,0.000
 00042,0.00000230,-0.00000477,-0.00000161,-0.00247005,-0.00016690,0.000
 14720,-0.11232055,0.11178522,0.00125470,-0.00086694,0.00445662,0.00061
 860,0.00001059,0.00633523,-0.00012259,0.00004652,-0.00055045,-0.000082
 94,0.00004525,-0.00090590,0.00001333,-0.00001018,0.00015948,-0.0000390
 4,-0.00001460,-0.00033256,0.00000664,0.00000389,0.00000036,-0.00000034
 ,-0.00000777,0.00003385,0.00000284,0.00000241,0.00002333,-0.00000241,0
 .00000827,-0.00004944,-0.00000635,-0.00000567,0.00000624,0.00002002,-0
 .00000482,0.00011093,0.00000422,0.00001115,-0.00005061,-0.00007991,0.0
 0007501,-0.00046206,0.00017210,0.00014038,0.00015528,-0.00012250,0.000
 19906,-0.00364646,0.00156872,-0.00061821,0.00384973,0.02657524,-0.0125
 9614,-0.04108341,0.00041628,-0.00055569,0.00668574,0.00010373,0.000001
 29,0.00033899,0.00000474,0.00001858,0.00001809,-0.00003347,-0.00001060
 ,-0.00014979,-0.00042643,0.00022593,-0.00391156,0.00005519,-0.00004161
 ,0.00012064,0.00000434,-0.00000011,0.00003330,0.00000978,-0.00000551,0
 .00009105,-0.00000651,0.00000048,-0.00008484,-0.00000006,-0.00000112,0
 .00000283,-0.00000026,-0.00000118,0.00000532,0.00000221,-0.00000226,0.
 00003411,0.00000773,0.00000119,0.00010198,0.00000040,-0.00000475,0.000
 02675,0.00015082,0.00017020,0.00141981,-0.03006879,0.01378693,0.027217
 41\\-0.00003475,-0.00000346,0.00000291,0.00005279,-0.00001125,-0.00000
 515,-0.00002694,-0.00009427,-0.00000180,0.00001163,0.00004494,0.000000
 96,0.00003607,-0.00002528,-0.00000430,-0.00006344,0.00000875,0.0000059
 8,0.00004302,0.00003023,-0.00000245,-0.00004012,-0.00003401,0.00000203
 ,0.00000781,0.00006381,0.00000214,0.00001511,-0.00004148,-0.00000317,-
 0.00004625,0.00000021,0.00000409,0.00009767,0.00000202,-0.00000852,-0.
 00000268,-0.00005412,-0.00000216,0.00001223,0.00003283,0.00000038,0.00
 002160,-0.00002281,-0.00000291,0.00008656,0.00006778,-0.00000463,-0.00
 008742,-0.00006665,0.00000475,0.00001644,-0.00002680,-0.00000263,-0.00
 000419,0.00009522,0.00000458,0.00001158,-0.00005195,-0.00000332,0.0000
 4706,-0.00002454,-0.00000523,-0.00009062,0.00002844,0.00000925,-0.0000
 1106,-0.00000374,0.00000081,-0.00001430,0.00001813,0.00000206,-0.00000
 535,-0.00001211,-0.00000006,-0.00000336,0.00001230,0.00000084,-0.00001
 484,-0.00001812,0.00000051,0.00002125,0.00000977,-0.00000144,-0.000010
 98,0.00000641,0.00000125,0.00001303,0.00000209,-0.00000106,-0.00001380
 ,0.00001852,0.00000204,0.00000644,0.00000977,-0.00000013,0.00000310,0.
 00003375,0.00000122,-0.00003329,0.00000563,0.00000318\\\@
 The archive entry for this job was punched.


 A MAN IS EXACTLY AS GREAT AS THE TIDE SURGING
 BENEATH HIM.      - BISMARCK
 Job cpu time:       0 days  0 hours 39 minutes 22.5 seconds.
 Elapsed time:       0 days  0 hours  4 minutes 55.4 seconds.
 File lengths (MBytes):  RWF=    265 Int=      0 D2E=      0 Chk=     11 Scr=      1
 Normal termination of Gaussian 16 at Tue Oct  8 21:01:08 2024.
