 Entering Gaussian System, Link 0=g16
 Initial command:
 /opt/g16/l1.exe "/tmp/Gau-238127.inp" -scrdir="/tmp/"
 Entering Link 1 = /opt/g16/l1.exe PID=    238128.
  
 Copyright (c) 1988-2019, Gaussian, Inc.  All Rights Reserved.
  
 This is part of the Gaussian(R) 16 program.  It is based on
 the Gaussian(R) 09 system (copyright 2009, Gaussian, Inc.),
 the Gaussian(R) 03 system (copyright 2003, Gaussian, Inc.),
 the Gaussian(R) 98 system (copyright 1998, Gaussian, Inc.),
 the Gaussian(R) 94 system (copyright 1995, Gaussian, Inc.),
 the Gaussian 92(TM) system (copyright 1992, Gaussian, Inc.),
 the Gaussian 90(TM) system (copyright 1990, Gaussian, Inc.),
 the Gaussian 88(TM) system (copyright 1988, Gaussian, Inc.),
 the Gaussian 86(TM) system (copyright 1986, Carnegie Mellon
 University), and the Gaussian 82(TM) system (copyright 1983,
 Carnegie Mellon University). Gaussian is a federally registered
 trademark of Gaussian, Inc.
  
 This software contains proprietary and confidential information,
 including trade secrets, belonging to Gaussian, Inc.
  
 This software is provided under written license and may be
 used, copied, transmitted, or stored only in accord with that
 written license.
  
 The following legend is applicable only to US Government
 contracts under FAR:
  
                    RESTRICTED RIGHTS LEGEND
  
 Use, reproduction and disclosure by the US Government is
 subject to restrictions as set forth in subparagraphs (a)
 and (c) of the Commercial Computer Software - Restricted
 Rights clause in FAR 52.227-19.
  
 Gaussian, Inc.
 340 Quinnipiac St., Bldg. 40, Wallingford CT 06492
  
  
 ---------------------------------------------------------------
 Warning -- This program may not be used in any manner that
 competes with the business of Gaussian, Inc. or will provide
 assistance to any competitor of Gaussian, Inc.  The licensee
 of this program is prohibited from giving any competitor of
 Gaussian, Inc. access to this program.  By using this program,
 the user acknowledges that Gaussian, Inc. is engaged in the
 business of creating and licensing software in the field of
 computational chemistry and represents and warrants to the
 licensee that it is not a competitor of Gaussian, Inc. and that
 it will not use this program in any manner prohibited above.
 ---------------------------------------------------------------
  

 Cite this work as:
 Gaussian 16, Revision C.01,
 M. J. Frisch, G. W. Trucks, H. B. Schlegel, G. E. Scuseria, 
 M. A. Robb, J. R. Cheeseman, G. Scalmani, V. Barone, 
 G. A. Petersson, H. Nakatsuji, X. Li, M. Caricato, A. V. Marenich, 
 J. Bloino, B. G. Janesko, R. Gomperts, B. Mennucci, H. P. Hratchian, 
 J. V. Ortiz, A. F. Izmaylov, J. L. Sonnenberg, D. Williams-Young, 
 F. Ding, F. Lipparini, F. Egidi, J. Goings, B. Peng, A. Petrone, 
 T. Henderson, D. Ranasinghe, V. G. Zakrzewski, J. Gao, N. Rega, 
 G. Zheng, W. Liang, M. Hada, M. Ehara, K. Toyota, R. Fukuda, 
 J. Hasegawa, M. Ishida, T. Nakajima, Y. Honda, O. Kitao, H. Nakai, 
 T. Vreven, K. Throssell, J. A. Montgomery, Jr., J. E. Peralta, 
 F. Ogliaro, M. J. Bearpark, J. J. Heyd, E. N. Brothers, K. N. Kudin, 
 V. N. Staroverov, T. A. Keith, R. Kobayashi, J. Normand, 
 K. Raghavachari, A. P. Rendell, J. C. Burant, S. S. Iyengar, 
 J. Tomasi, M. Cossi, J. M. Millam, M. Klene, C. Adamo, R. Cammi, 
 J. W. Ochterski, R. L. Martin, K. Morokuma, O. Farkas, 
 J. B. Foresman, and D. J. Fox, Gaussian, Inc., Wallingford CT, 2019.
 
 ******************************************
 Gaussian 16:  ES64L-G16RevC.01  3-Jul-2019
                31-Jul-2025 
 ******************************************
 %nprocshared=16
 Will use up to   16 processors via shared memory.
 %mem=16000MB
 ----------------------------------------------------------------------
 #N opt freq B3LYP/def2SVPP symm=veryloose em=gd3bj scale=0.961 press=0
 .987
 ----------------------------------------------------------------------
 1/18=20,19=15,26=3,38=1,113=-987000,114=961000/1,3;
 2/9=110,12=2,17=2,18=2,40=1/2;
 3/5=43,7=202,11=2,25=1,30=1,71=1,74=-5,124=41/1,2,3;
 4//1;
 5/5=2,38=5/2;
 6/7=2,8=2,9=2,10=2,28=1/1;
 7//1,2,3,16;
 1/18=20,19=15,26=3/3(2);
 2/9=110/2;
 99//99;
 2/9=110/2;
 3/5=43,7=202,11=2,25=1,30=1,71=1,74=-5,124=41/1,2,3;
 4/5=5,16=3,69=1/1;
 5/5=2,38=5/2;
 7//1,2,3,16;
 1/18=20,19=15,26=3/3(-5);
 2/9=110/2;
 6/7=2,8=2,9=2,10=2,19=2,28=1/1;
 99/9=1/99;
 ------------------------------------
 c1ccc2cc3c(cc2c1)-c1cccc2cccc-3c12_1
 ------------------------------------
 Symbolic Z-matrix:
 Charge =  0 Multiplicity = 1
 C                     0.       -0.70403   4.99487 
 C                     0.        0.70403   4.99487 
 C                     0.        1.39594   3.79728 
 C                     0.        0.72299   2.56567 
 C                     0.        1.43615   1.35043 
 C                     0.        0.72344   0.16504 
 C                     0.       -0.72344   0.16504 
 C                     0.       -1.43615   1.35043 
 C                     0.       -0.72299   2.56567 
 C                     0.       -1.39594   3.79728 
 C                     0.       -1.13142  -1.22029 
 C                     0.       -2.37915  -1.81617 
 C                     0.       -2.45019  -3.22042 
 C                     0.       -1.28313  -4.01553 
 C                     0.        0.       -3.41118 
 C                     0.        1.28313  -4.01553 
 C                     0.        2.45019  -3.22042 
 C                     0.        2.37915  -1.81617 
 C                     0.        1.13142  -1.22029 
 C                     0.        0.       -2.01862 
 H                     0.       -1.25434   5.93236 
 H                     0.        1.25434   5.93236 
 H                     0.        2.48303   3.8308 
 H                     0.        2.521     1.33866 
 H                     0.       -2.521     1.33866 
 H                     0.       -2.48303   3.8308 
 H                     0.       -3.28575  -1.22073 
 H                     0.       -3.42463  -3.70443 
 H                     0.       -1.37399  -5.09867 
 H                     0.        1.37399  -5.09867 
 H                     0.        3.42463  -3.70443 
 H                     0.        3.28575  -1.22073 
 

 GradGradGradGradGradGradGradGradGradGradGradGradGradGradGradGradGradGrad
 Berny optimization.
 Initialization pass.
                           ----------------------------
                           !    Initial Parameters    !
                           ! (Angstroms and Degrees)  !
 --------------------------                            --------------------------
 ! Name  Definition              Value          Derivative Info.                !
 --------------------------------------------------------------------------------
 ! R1    R(1,2)                  1.4081         estimate D2E/DX2                !
 ! R2    R(1,10)                 1.3831         estimate D2E/DX2                !
 ! R3    R(1,21)                 1.0871         estimate D2E/DX2                !
 ! R4    R(2,3)                  1.3831         estimate D2E/DX2                !
 ! R5    R(2,22)                 1.0871         estimate D2E/DX2                !
 ! R6    R(3,4)                  1.4035         estimate D2E/DX2                !
 ! R7    R(3,23)                 1.0876         estimate D2E/DX2                !
 ! R8    R(4,5)                  1.409          estimate D2E/DX2                !
 ! R9    R(4,9)                  1.446          estimate D2E/DX2                !
 ! R10   R(5,6)                  1.3831         estimate D2E/DX2                !
 ! R11   R(5,24)                 1.0849         estimate D2E/DX2                !
 ! R12   R(6,7)                  1.4469         estimate D2E/DX2                !
 ! R13   R(6,19)                 1.4442         estimate D2E/DX2                !
 ! R14   R(7,8)                  1.3831         estimate D2E/DX2                !
 ! R15   R(7,11)                 1.4442         estimate D2E/DX2                !
 ! R16   R(8,9)                  1.409          estimate D2E/DX2                !
 ! R17   R(8,25)                 1.0849         estimate D2E/DX2                !
 ! R18   R(9,10)                 1.4035         estimate D2E/DX2                !
 ! R19   R(10,26)                1.0876         estimate D2E/DX2                !
 ! R20   R(11,12)                1.3827         estimate D2E/DX2                !
 ! R21   R(11,20)                1.3847         estimate D2E/DX2                !
 ! R22   R(12,13)                1.406          estimate D2E/DX2                !
 ! R23   R(12,27)                1.0847         estimate D2E/DX2                !
 ! R24   R(13,14)                1.4122         estimate D2E/DX2                !
 ! R25   R(13,28)                1.088          estimate D2E/DX2                !
 ! R26   R(14,15)                1.4183         estimate D2E/DX2                !
 ! R27   R(14,29)                1.0869         estimate D2E/DX2                !
 ! R28   R(15,16)                1.4183         estimate D2E/DX2                !
 ! R29   R(15,20)                1.3926         estimate D2E/DX2                !
 ! R30   R(16,17)                1.4122         estimate D2E/DX2                !
 ! R31   R(16,30)                1.0869         estimate D2E/DX2                !
 ! R32   R(17,18)                1.406          estimate D2E/DX2                !
 ! R33   R(17,31)                1.088          estimate D2E/DX2                !
 ! R34   R(18,19)                1.3827         estimate D2E/DX2                !
 ! R35   R(18,32)                1.0847         estimate D2E/DX2                !
 ! R36   R(19,20)                1.3847         estimate D2E/DX2                !
 ! A1    A(2,1,10)             120.0171         estimate D2E/DX2                !
 ! A2    A(2,1,21)             120.413          estimate D2E/DX2                !
 ! A3    A(10,1,21)            119.5699         estimate D2E/DX2                !
 ! A4    A(1,2,3)              120.0171         estimate D2E/DX2                !
 ! A5    A(1,2,22)             120.413          estimate D2E/DX2                !
 ! A6    A(3,2,22)             119.5699         estimate D2E/DX2                !
 ! A7    A(2,3,4)              121.3307         estimate D2E/DX2                !
 ! A8    A(2,3,23)             118.251          estimate D2E/DX2                !
 ! A9    A(4,3,23)             120.4184         estimate D2E/DX2                !
 ! A10   A(3,4,5)              120.9415         estimate D2E/DX2                !
 ! A11   A(3,4,9)              118.6522         estimate D2E/DX2                !
 ! A12   A(5,4,9)              120.4063         estimate D2E/DX2                !
 ! A13   A(4,5,6)              118.5777         estimate D2E/DX2                !
 ! A14   A(4,5,24)             121.0278         estimate D2E/DX2                !
 ! A15   A(6,5,24)             120.3944         estimate D2E/DX2                !
 ! A16   A(5,6,7)              121.016          estimate D2E/DX2                !
 ! A17   A(5,6,19)             132.5742         estimate D2E/DX2                !
 ! A18   A(7,6,19)             106.4098         estimate D2E/DX2                !
 ! A19   A(6,7,8)              121.016          estimate D2E/DX2                !
 ! A20   A(6,7,11)             106.4098         estimate D2E/DX2                !
 ! A21   A(8,7,11)             132.5742         estimate D2E/DX2                !
 ! A22   A(7,8,9)              118.5777         estimate D2E/DX2                !
 ! A23   A(7,8,25)             120.3944         estimate D2E/DX2                !
 ! A24   A(9,8,25)             121.0278         estimate D2E/DX2                !
 ! A25   A(4,9,8)              120.4063         estimate D2E/DX2                !
 ! A26   A(4,9,10)             118.6522         estimate D2E/DX2                !
 ! A27   A(8,9,10)             120.9415         estimate D2E/DX2                !
 ! A28   A(1,10,9)             121.3307         estimate D2E/DX2                !
 ! A29   A(1,10,26)            118.251          estimate D2E/DX2                !
 ! A30   A(9,10,26)            120.4184         estimate D2E/DX2                !
 ! A31   A(7,11,12)            131.9378         estimate D2E/DX2                !
 ! A32   A(7,11,20)            108.7971         estimate D2E/DX2                !
 ! A33   A(12,11,20)           119.2651         estimate D2E/DX2                !
 ! A34   A(11,12,13)           118.4241         estimate D2E/DX2                !
 ! A35   A(11,12,27)           121.1754         estimate D2E/DX2                !
 ! A36   A(13,12,27)           120.4005         estimate D2E/DX2                !
 ! A37   A(12,13,14)           121.3703         estimate D2E/DX2                !
 ! A38   A(12,13,28)           119.31           estimate D2E/DX2                !
 ! A39   A(14,13,28)           119.3197         estimate D2E/DX2                !
 ! A40   A(13,14,15)           120.5133         estimate D2E/DX2                !
 ! A41   A(13,14,29)           119.4712         estimate D2E/DX2                !
 ! A42   A(15,14,29)           120.0155         estimate D2E/DX2                !
 ! A43   A(14,15,16)           129.5592         estimate D2E/DX2                !
 ! A44   A(14,15,20)           115.2204         estimate D2E/DX2                !
 ! A45   A(16,15,20)           115.2204         estimate D2E/DX2                !
 ! A46   A(15,16,17)           120.5133         estimate D2E/DX2                !
 ! A47   A(15,16,30)           120.0155         estimate D2E/DX2                !
 ! A48   A(17,16,30)           119.4712         estimate D2E/DX2                !
 ! A49   A(16,17,18)           121.3703         estimate D2E/DX2                !
 ! A50   A(16,17,31)           119.3197         estimate D2E/DX2                !
 ! A51   A(18,17,31)           119.31           estimate D2E/DX2                !
 ! A52   A(17,18,19)           118.4241         estimate D2E/DX2                !
 ! A53   A(17,18,32)           120.4005         estimate D2E/DX2                !
 ! A54   A(19,18,32)           121.1754         estimate D2E/DX2                !
 ! A55   A(6,19,18)            131.9378         estimate D2E/DX2                !
 ! A56   A(6,19,20)            108.7971         estimate D2E/DX2                !
 ! A57   A(18,19,20)           119.2651         estimate D2E/DX2                !
 ! A58   A(11,20,15)           125.2069         estimate D2E/DX2                !
 ! A59   A(11,20,19)           109.5862         estimate D2E/DX2                !
 ! A60   A(15,20,19)           125.2069         estimate D2E/DX2                !
 ! D1    D(10,1,2,3)             0.0            estimate D2E/DX2                !
 ! D2    D(10,1,2,22)          180.0            estimate D2E/DX2                !
 ! D3    D(21,1,2,3)           180.0            estimate D2E/DX2                !
 ! D4    D(21,1,2,22)            0.0            estimate D2E/DX2                !
 ! D5    D(2,1,10,9)             0.0            estimate D2E/DX2                !
 ! D6    D(2,1,10,26)          180.0            estimate D2E/DX2                !
 ! D7    D(21,1,10,9)          180.0            estimate D2E/DX2                !
 ! D8    D(21,1,10,26)           0.0            estimate D2E/DX2                !
 ! D9    D(1,2,3,4)              0.0            estimate D2E/DX2                !
 ! D10   D(1,2,3,23)           180.0            estimate D2E/DX2                !
 ! D11   D(22,2,3,4)           180.0            estimate D2E/DX2                !
 ! D12   D(22,2,3,23)            0.0            estimate D2E/DX2                !
 ! D13   D(2,3,4,5)            180.0            estimate D2E/DX2                !
 ! D14   D(2,3,4,9)              0.0            estimate D2E/DX2                !
 ! D15   D(23,3,4,5)             0.0            estimate D2E/DX2                !
 ! D16   D(23,3,4,9)           180.0            estimate D2E/DX2                !
 ! D17   D(3,4,5,6)            180.0            estimate D2E/DX2                !
 ! D18   D(3,4,5,24)             0.0            estimate D2E/DX2                !
 ! D19   D(9,4,5,6)              0.0            estimate D2E/DX2                !
 ! D20   D(9,4,5,24)           180.0            estimate D2E/DX2                !
 ! D21   D(3,4,9,8)            180.0            estimate D2E/DX2                !
 ! D22   D(3,4,9,10)             0.0            estimate D2E/DX2                !
 ! D23   D(5,4,9,8)              0.0            estimate D2E/DX2                !
 ! D24   D(5,4,9,10)           180.0            estimate D2E/DX2                !
 ! D25   D(4,5,6,7)              0.0            estimate D2E/DX2                !
 ! D26   D(4,5,6,19)           180.0            estimate D2E/DX2                !
 ! D27   D(24,5,6,7)           180.0            estimate D2E/DX2                !
 ! D28   D(24,5,6,19)            0.0            estimate D2E/DX2                !
 ! D29   D(5,6,7,8)              0.0            estimate D2E/DX2                !
 ! D30   D(5,6,7,11)           180.0            estimate D2E/DX2                !
 ! D31   D(19,6,7,8)           180.0            estimate D2E/DX2                !
 ! D32   D(19,6,7,11)            0.0            estimate D2E/DX2                !
 ! D33   D(5,6,19,18)            0.0            estimate D2E/DX2                !
 ! D34   D(5,6,19,20)          180.0            estimate D2E/DX2                !
 ! D35   D(7,6,19,18)          180.0            estimate D2E/DX2                !
 ! D36   D(7,6,19,20)            0.0            estimate D2E/DX2                !
 ! D37   D(6,7,8,9)              0.0            estimate D2E/DX2                !
 ! D38   D(6,7,8,25)           180.0            estimate D2E/DX2                !
 ! D39   D(11,7,8,9)           180.0            estimate D2E/DX2                !
 ! D40   D(11,7,8,25)            0.0            estimate D2E/DX2                !
 ! D41   D(6,7,11,12)          180.0            estimate D2E/DX2                !
 ! D42   D(6,7,11,20)            0.0            estimate D2E/DX2                !
 ! D43   D(8,7,11,12)            0.0            estimate D2E/DX2                !
 ! D44   D(8,7,11,20)          180.0            estimate D2E/DX2                !
 ! D45   D(7,8,9,4)              0.0            estimate D2E/DX2                !
 ! D46   D(7,8,9,10)           180.0            estimate D2E/DX2                !
 ! D47   D(25,8,9,4)           180.0            estimate D2E/DX2                !
 ! D48   D(25,8,9,10)            0.0            estimate D2E/DX2                !
 ! D49   D(4,9,10,1)             0.0            estimate D2E/DX2                !
 ! D50   D(4,9,10,26)          180.0            estimate D2E/DX2                !
 ! D51   D(8,9,10,1)           180.0            estimate D2E/DX2                !
 ! D52   D(8,9,10,26)            0.0            estimate D2E/DX2                !
 ! D53   D(7,11,12,13)         180.0            estimate D2E/DX2                !
 ! D54   D(7,11,12,27)           0.0            estimate D2E/DX2                !
 ! D55   D(20,11,12,13)          0.0            estimate D2E/DX2                !
 ! D56   D(20,11,12,27)        180.0            estimate D2E/DX2                !
 ! D57   D(7,11,20,15)         180.0            estimate D2E/DX2                !
 ! D58   D(7,11,20,19)           0.0            estimate D2E/DX2                !
 ! D59   D(12,11,20,15)          0.0            estimate D2E/DX2                !
 ! D60   D(12,11,20,19)        180.0            estimate D2E/DX2                !
 ! D61   D(11,12,13,14)          0.0            estimate D2E/DX2                !
 ! D62   D(11,12,13,28)        180.0            estimate D2E/DX2                !
 ! D63   D(27,12,13,14)        180.0            estimate D2E/DX2                !
 ! D64   D(27,12,13,28)          0.0            estimate D2E/DX2                !
 ! D65   D(12,13,14,15)          0.0            estimate D2E/DX2                !
 ! D66   D(12,13,14,29)        180.0            estimate D2E/DX2                !
 ! D67   D(28,13,14,15)        180.0            estimate D2E/DX2                !
 ! D68   D(28,13,14,29)          0.0            estimate D2E/DX2                !
 ! D69   D(13,14,15,16)        180.0            estimate D2E/DX2                !
 ! D70   D(13,14,15,20)          0.0            estimate D2E/DX2                !
 ! D71   D(29,14,15,16)          0.0            estimate D2E/DX2                !
 ! D72   D(29,14,15,20)        180.0            estimate D2E/DX2                !
 ! D73   D(14,15,16,17)        180.0            estimate D2E/DX2                !
 ! D74   D(14,15,16,30)          0.0            estimate D2E/DX2                !
 ! D75   D(20,15,16,17)          0.0            estimate D2E/DX2                !
 ! D76   D(20,15,16,30)        180.0            estimate D2E/DX2                !
 ! D77   D(14,15,20,11)          0.0            estimate D2E/DX2                !
 ! D78   D(14,15,20,19)        180.0            estimate D2E/DX2                !
 ! D79   D(16,15,20,11)        180.0            estimate D2E/DX2                !
 ! D80   D(16,15,20,19)          0.0            estimate D2E/DX2                !
 ! D81   D(15,16,17,18)          0.0            estimate D2E/DX2                !
 ! D82   D(15,16,17,31)        180.0            estimate D2E/DX2                !
 ! D83   D(30,16,17,18)        180.0            estimate D2E/DX2                !
 ! D84   D(30,16,17,31)          0.0            estimate D2E/DX2                !
 ! D85   D(16,17,18,19)          0.0            estimate D2E/DX2                !
 ! D86   D(16,17,18,32)        180.0            estimate D2E/DX2                !
 ! D87   D(31,17,18,19)        180.0            estimate D2E/DX2                !
 ! D88   D(31,17,18,32)          0.0            estimate D2E/DX2                !
 ! D89   D(17,18,19,6)         180.0            estimate D2E/DX2                !
 ! D90   D(17,18,19,20)          0.0            estimate D2E/DX2                !
 ! D91   D(32,18,19,6)           0.0            estimate D2E/DX2                !
 ! D92   D(32,18,19,20)        180.0            estimate D2E/DX2                !
 ! D93   D(6,19,20,11)           0.0            estimate D2E/DX2                !
 ! D94   D(6,19,20,15)         180.0            estimate D2E/DX2                !
 ! D95   D(18,19,20,11)        180.0            estimate D2E/DX2                !
 ! D96   D(18,19,20,15)          0.0            estimate D2E/DX2                !
 --------------------------------------------------------------------------------
 Trust Radius=3.00D-01 FncErr=1.00D-07 GrdErr=1.00D-06 EigMax=2.50D+02 EigMin=1.00D-04
 Number of steps in this run=    192 maximum allowed number of steps=    192.
 GradGradGradGradGradGradGradGradGradGradGradGradGradGradGradGradGradGrad

                          Input orientation:                          
 ---------------------------------------------------------------------
 Center     Atomic      Atomic             Coordinates (Angstroms)
 Number     Number       Type             X           Y           Z
 ---------------------------------------------------------------------
      1          6           0        0.000000   -0.704032    4.994866
      2          6           0        0.000000    0.704032    4.994866
      3          6           0        0.000000    1.395939    3.797275
      4          6           0        0.000000    0.722991    2.565675
      5          6           0        0.000000    1.436149    1.350431
      6          6           0        0.000000    0.723443    0.165039
      7          6           0        0.000000   -0.723443    0.165039
      8          6           0        0.000000   -1.436149    1.350431
      9          6           0        0.000000   -0.722991    2.565675
     10          6           0        0.000000   -1.395939    3.797275
     11          6           0        0.000000   -1.131423   -1.220286
     12          6           0        0.000000   -2.379154   -1.816172
     13          6           0        0.000000   -2.450192   -3.220420
     14          6           0        0.000000   -1.283132   -4.015530
     15          6           0        0.000000    0.000000   -3.411176
     16          6           0        0.000000    1.283132   -4.015530
     17          6           0        0.000000    2.450192   -3.220420
     18          6           0        0.000000    2.379154   -1.816172
     19          6           0        0.000000    1.131423   -1.220286
     20          6           0        0.000000    0.000000   -2.018621
     21          1           0        0.000000   -1.254340    5.932355
     22          1           0        0.000000    1.254340    5.932355
     23          1           0        0.000000    2.483030    3.830795
     24          1           0        0.000000    2.521003    1.338661
     25          1           0        0.000000   -2.521003    1.338661
     26          1           0        0.000000   -2.483030    3.830795
     27          1           0        0.000000   -3.285754   -1.220726
     28          1           0        0.000000   -3.424634   -3.704433
     29          1           0        0.000000   -1.373993   -5.098669
     30          1           0        0.000000    1.373993   -5.098669
     31          1           0        0.000000    3.424634   -3.704433
     32          1           0        0.000000    3.285754   -1.220726
 ---------------------------------------------------------------------
                    Distance matrix (angstroms):
                    1          2          3          4          5
     1  C    0.000000
     2  C    1.408065   0.000000
     3  C    2.417458   1.383097   0.000000
     4  C    2.817333   2.429266   1.403460   0.000000
     5  C    4.226380   3.717244   2.447175   1.409047   0.000000
     6  C    5.036360   4.829866   3.693967   2.400636   1.383150
     7  C    4.829866   5.036360   4.205344   2.802717   2.463532
     8  C    3.717244   4.226380   3.742695   2.477640   2.872297
     9  C    2.429266   2.817333   2.450857   1.445981   2.477640
    10  C    1.383097   2.417458   2.791877   2.450857   3.742695
    11  C    6.229830   6.480510   5.618138   4.215726   3.633319
    12  C    7.014006   7.476382   6.764770   5.368788   4.958216
    13  C    8.398809   8.800003   8.002547   6.599089   5.999693
    14  C    9.028986   9.226920   8.259379   6.880173   6.015648
    15  C    8.435473   8.435473   7.342371   6.020420   4.973471
    16  C    9.226920   9.028986   7.813620   6.604999   5.368142
    17  C    8.800003   8.398809   7.096442   6.038387   4.681982
    18  C    7.476382   7.014006   5.698904   4.684385   3.304033
    19  C    6.480510   6.229830   5.024529   3.807928   2.588714
    20  C    7.048735   7.048735   5.981078   4.640957   3.662381
    21  H    1.087071   2.171200   3.403314   3.904405   5.313451
    22  H    2.171200   1.087071   2.139770   3.408353   4.585530
    23  H    3.392997   2.126004   1.087608   2.167549   2.692242
    24  H    4.875314   4.082795   2.703804   2.176789   1.084918
    25  H    4.082795   4.875314   4.624631   3.468293   3.957169
    26  H    2.126004   3.392997   3.879113   3.446607   4.638121
    27  H    6.730444   7.385931   6.862841   5.514242   5.376542
    28  H    9.114795   9.629314   8.917037   7.517782   7.012764
    29  H   10.115745  10.305224   9.317207   7.946037   7.034755
    30  H   10.305224  10.115745   8.895972   7.691942   6.449399
    31  H    9.629314   9.114795   7.771180   6.827381   5.431917
    32  H    7.385931   6.730444   5.362065   4.572153   3.167315
                    6          7          8          9         10
     6  C    0.000000
     7  C    1.446885   0.000000
     8  C    2.463532   1.383150   0.000000
     9  C    2.802717   2.400636   1.409047   0.000000
    10  C    4.205344   3.693967   2.447175   1.403460   0.000000
    11  C    2.315092   1.444151   2.588714   3.807928   5.024529
    12  C    3.681209   2.581971   3.304033   4.684385   5.698904
    13  C    4.640397   3.800394   4.681982   6.038387   7.096442
    14  C    4.637186   4.217867   5.368142   6.604999   7.813620
    15  C    3.648654   3.648654   4.973471   6.020420   7.342371
    16  C    4.217867   4.637186   6.015648   6.880173   8.259379
    17  C    3.800394   4.640397   5.999693   6.599089   8.002547
    18  C    2.581971   3.681209   4.958216   5.368788   6.764770
    19  C    1.444151   2.315092   3.633319   4.215726   5.618138
    20  C    2.300378   2.300378   3.662381   4.640957   5.981078
    21  H    6.097013   5.791700   4.585530   3.408353   2.139770
    22  H    5.791700   6.097013   5.313451   3.904405   3.403314
    23  H    4.066192   4.870240   4.638121   3.446607   3.879113
    24  H    2.146768   3.450191   3.957169   3.468293   4.624631
    25  H    3.450191   2.146768   1.084918   2.176789   2.703804
    26  H    4.870240   4.066192   2.692242   2.167549   1.087608
    27  H    4.241933   2.913037   3.167315   4.572153   5.362065
    28  H    5.672685   4.719030   5.431917   6.827381   7.771180
    29  H    5.666203   5.303757   6.449399   7.691942   8.895972
    30  H    5.303757   5.666203   7.034755   7.946037   9.317207
    31  H    4.719030   5.672685   7.012764   7.517782   8.917037
    32  H    2.913037   4.241933   5.376542   5.514242   6.862841
                   11         12         13         14         15
    11  C    0.000000
    12  C    1.382719   0.000000
    13  C    2.395765   1.406043   0.000000
    14  C    2.799358   2.457323   1.412172   0.000000
    15  C    2.465789   2.864334   2.457607   1.418334   0.000000
    16  C    3.693706   4.271944   3.817055   2.566263   1.418334
    17  C    4.102256   5.029363   4.900385   3.817055   2.457607
    18  C    3.560790   4.758307   5.029363   4.271944   2.864334
    19  C    2.262846   3.560790   4.102256   3.693706   2.465789
    20  C    1.384723   2.387751   2.729059   2.373620   1.392555
    21  H    7.153697   7.829744   9.230566   9.947927   9.427351
    22  H    7.540036   8.558152   9.874049  10.266410   9.427351
    23  H    6.211094   7.451783   8.605598   8.703378   7.655820
    24  H    4.459644   5.827908   6.745220   6.568013   5.377398
    25  H    2.911897   3.158021   4.559631   5.495424   5.377398
    26  H    5.228791   5.647923   7.051291   7.937542   7.655820
    27  H    2.154331   1.084657   2.167242   3.438230   3.948955
    28  H    3.380799   2.158369   1.088028   2.163981   3.437167
    29  H    3.885962   3.432948   2.164723   1.086944   2.176118
    30  H    4.617246   4.986070   4.260541   2.869408   2.176118
    31  H    5.189282   6.103235   5.894731   4.718034   3.437167
    32  H    4.417177   5.696115   6.074525   5.355898   3.948955
                   16         17         18         19         20
    16  C    0.000000
    17  C    1.412172   0.000000
    18  C    2.457323   1.406043   0.000000
    19  C    2.799358   2.395765   1.382719   0.000000
    20  C    2.373620   2.729059   2.387751   1.384723   0.000000
    21  H   10.266410   9.874049   8.558152   7.540036   8.049310
    22  H    9.947927   9.230566   7.829744   7.153697   8.049310
    23  H    7.937542   7.051291   5.647923   5.228791   6.354613
    24  H    5.495424   4.559631   3.158021   2.911897   4.198428
    25  H    6.568013   6.745220   5.827908   4.459644   4.198428
    26  H    8.703378   8.605598   7.451783   6.211094   6.354613
    27  H    5.355898   6.074525   5.696115   4.417177   3.381244
    28  H    4.718034   5.894731   6.103235   5.189282   3.817078
    29  H    2.869408   4.260541   4.986070   4.617246   3.372618
    30  H    1.086944   2.164723   3.432948   3.885962   3.372618
    31  H    2.163981   1.088028   2.158369   3.380799   3.817078
    32  H    3.438230   2.167242   1.084657   2.154331   3.381244
                   21         22         23         24         25
    21  H    0.000000
    22  H    2.508680   0.000000
    23  H    4.287714   2.434386   0.000000
    24  H    5.946027   4.765130   2.492423   0.000000
    25  H    4.765130   5.946027   5.590266   5.042006   0.000000
    26  H    2.434386   4.287714   4.966060   5.590266   2.492423
    27  H    7.435941   8.472250   7.667903   6.345777   2.671199
    28  H    9.878151  10.712632   9.574976   7.796371   5.123412
    29  H   11.031673  11.339825   9.726868   7.523976   6.538720
    30  H   11.339825  11.031673   8.998072   6.538720   7.523976
    31  H   10.712632   9.878151   7.593832   5.123412   7.796371
    32  H    8.472250   7.435941   5.114903   2.671199   6.345777
                   26         27         28         29         30
    26  H    0.000000
    27  H    5.114903   0.000000
    28  H    7.593832   2.487587   0.000000
    29  H    8.998072   4.323572   2.479723   0.000000
    30  H    9.726868   6.062316   4.997071   2.747985   0.000000
    31  H    9.574976   7.155285   6.849268   4.997071   2.479723
    32  H    7.667903   6.571508   7.155285   6.062316   4.323572
                   31         32
    31  H    0.000000
    32  H    2.487587   0.000000
 Stoichiometry    C20H12
 Framework group  C2V[C2(CC),SGV(C18H12)]
 Deg. of freedom    31
 Full point group                 C2V     NOp   4
 Largest Abelian subgroup         C2V     NOp   4
 Largest concise Abelian subgroup C2      NOp   2
                         Standard orientation:                         
 ---------------------------------------------------------------------
 Center     Atomic      Atomic             Coordinates (Angstroms)
 Number     Number       Type             X           Y           Z
 ---------------------------------------------------------------------
      1          6           0        0.000000    0.704032   -4.988899
      2          6           0       -0.000000   -0.704032   -4.988899
      3          6           0       -0.000000   -1.395939   -3.791308
      4          6           0       -0.000000   -0.722991   -2.559707
      5          6           0       -0.000000   -1.436149   -1.344463
      6          6           0       -0.000000   -0.723443   -0.159071
      7          6           0        0.000000    0.723443   -0.159071
      8          6           0        0.000000    1.436149   -1.344463
      9          6           0        0.000000    0.722991   -2.559707
     10          6           0        0.000000    1.395939   -3.791308
     11          6           0        0.000000    1.131423    1.226253
     12          6           0        0.000000    2.379154    1.822140
     13          6           0        0.000000    2.450192    3.226387
     14          6           0        0.000000    1.283132    4.021497
     15          6           0       -0.000000    0.000000    3.417143
     16          6           0       -0.000000   -1.283132    4.021497
     17          6           0       -0.000000   -2.450192    3.226387
     18          6           0       -0.000000   -2.379154    1.822140
     19          6           0       -0.000000   -1.131423    1.226253
     20          6           0       -0.000000    0.000000    2.024588
     21          1           0        0.000000    1.254340   -5.926388
     22          1           0       -0.000000   -1.254340   -5.926388
     23          1           0       -0.000000   -2.483030   -3.824827
     24          1           0       -0.000000   -2.521003   -1.332693
     25          1           0        0.000000    2.521003   -1.332693
     26          1           0        0.000000    2.483030   -3.824827
     27          1           0        0.000000    3.285754    1.226694
     28          1           0        0.000000    3.424634    3.710400
     29          1           0        0.000000    1.373993    5.104637
     30          1           0       -0.000000   -1.373993    5.104637
     31          1           0       -0.000000   -3.424634    3.710400
     32          1           0       -0.000000   -3.285754    1.226694
 ---------------------------------------------------------------------
 Rotational constants (GHZ):           0.9007671           0.2222662           0.1782762
 Standard basis: def2SVPP (5D, 7F)
 There are   127 symmetry adapted cartesian basis functions of A1  symmetry.
 There are    38 symmetry adapted cartesian basis functions of A2  symmetry.
 There are    42 symmetry adapted cartesian basis functions of B1  symmetry.
 There are   117 symmetry adapted cartesian basis functions of B2  symmetry.
 There are   116 symmetry adapted basis functions of A1  symmetry.
 There are    38 symmetry adapted basis functions of A2  symmetry.
 There are    42 symmetry adapted basis functions of B1  symmetry.
 There are   108 symmetry adapted basis functions of B2  symmetry.
   304 basis functions,   548 primitive gaussians,   324 cartesian basis functions
    66 alpha electrons       66 beta electrons
       nuclear repulsion energy      1333.6046148623 Hartrees.
 NAtoms=   32 NActive=   32 NUniq=   17 SFac= 3.54D+00 NAtFMM=   60 NAOKFM=F Big=F
 Integral buffers will be    131072 words long.
 Raffenetti 2 integral format.
 Two-electron integral symmetry is turned on.
 Nuclear repulsion after empirical dispersion term =     1333.5241396440 Hartrees.
 One-electron integrals computed using PRISM.
   4 Symmetry operations used in ECPInt.
 ECPInt:  NShTT=   10440 NPrTT=   41912 LenC2=    9661 LenP2D=   26950.
 LDataN:  DoStor=T MaxTD1= 4 Len=   56
 NBasis=   304 RedAO= T EigKep=  1.95D-04  NBF=   116    38    42   108
 NBsUse=   304 1.00D-06 EigRej= -1.00D+00 NBFU=   116    38    42   108
 ExpMin= 1.22D-01 ExpMax= 1.24D+03 ExpMxC= 1.86D+02 IAcc=3 IRadAn=         5 AccDes= 0.00D+00
 Harris functional with IExCor=  402 and IRadAn=       5 diagonalized for initial guess.
 HarFok:  IExCor=  402 AccDes= 0.00D+00 IRadAn=         5 IDoV= 1 UseB2=F ITyADJ=14
 ICtDFT=  3500011 ScaDFX=  1.000000  1.000000  1.000000  1.000000
 FoFCou: FMM=F IPFlag=           0 FMFlag=      100000 FMFlg1=           0
         NFxFlg=           0 DoJE=T BraDBF=F KetDBF=T FulRan=T
         wScrn=  0.000000 ICntrl=       500 IOpCl=  0 I1Cent=   200000004 NGrid=           0
         NMat0=    1 NMatS0=      1 NMatT0=    0 NMatD0=    1 NMtDS0=    0 NMtDT0=    0
 Petite list used in FoFCou.
 Initial guess orbital symmetries:
       Occupied  (A1) (B2) (A1) (A1) (B2) (A1) (B2) (B2) (A1) (B2)
                 (A1) (A1) (B2) (A1) (B2) (A1) (B2) (A1) (B2) (A1)
                 (A1) (A1) (A1) (B2) (A1) (B2) (A1) (B2) (A1) (B2)
                 (A1) (B2) (A1) (B2) (A1) (A1) (B2) (A1) (A1) (B2)
                 (A1) (B2) (A1) (B2) (A1) (B2) (A1) (B2) (B2) (B1)
                 (A1) (B2) (A1) (B1) (B2) (A1) (B2) (A1) (B1) (A2)
                 (A2) (B1) (B1) (A2) (B1) (A2)
       Virtual   (A2) (B1) (B1) (A2) (B1) (B1) (A2) (A2) (A1) (A1)
                 (B2) (B2) (A1) (A1) (B2) (A2) (B1) (B2) (A1) (A1)
                 (B2) (B2) (A1) (B2) (A1) (B2) (A1) (A1) (B2) (B2)
                 (A1) (B2) (A1) (A1) (B2) (A1) (A1) (B2) (A1) (A1)
                 (B2) (B2) (A1) (A1) (B2) (B2) (A1) (B2) (A1) (A1)
                 (B1) (B2) (A1) (B2) (B1) (A1) (A1) (B2) (A2) (B2)
                 (B1) (B2) (A2) (A1) (B2) (A1) (B1) (A1) (B2) (A2)
                 (B1) (B1) (A2) (B1) (B1) (A2) (B2) (A1) (A1) (B1)
                 (A1) (B2) (B2) (A1) (A2) (B2) (A1) (B2) (A1) (B2)
                 (B2) (A1) (B2) (B2) (A2) (A1) (B1) (A1) (B2) (A2)
                 (A1) (A1) (B2) (A2) (B2) (B1) (B2) (A1) (A1) (B2)
                 (A1) (B2) (B2) (A1) (A1) (B2) (A1) (B2) (A1) (B2)
                 (B2) (A1) (B2) (B1) (B1) (A2) (A1) (B1) (A1) (A1)
                 (B2) (B2) (A2) (B1) (A1) (A1) (A2) (B2) (A2) (B1)
                 (A1) (B2) (B1) (B1) (A2) (B1) (A2) (A2) (B1) (B2)
                 (B2) (A1) (B2) (A1) (B2) (A1) (A1) (A1) (B2) (A2)
                 (A1) (B1) (B2) (A1) (A1) (B2) (A2) (A1) (B1) (B2)
                 (A1) (B2) (B2) (A1) (A1) (B1) (B2) (A1) (A1) (B1)
                 (B2) (A1) (A2) (B2) (A1) (B2) (A1) (B1) (B2) (A2)
                 (A2) (B2) (A1) (A2) (B2) (B1) (A2) (B1) (B2) (B1)
                 (A1) (A2) (B1) (A2) (B1) (A1) (B2) (B2) (A1) (B2)
                 (A2) (A1) (A1) (A2) (B2) (A1) (A2) (B2) (A1) (B2)
                 (A2) (A1) (B1) (A1) (B2) (B2) (A1) (B2) (B2) (A1)
                 (A1) (B2) (A1) (B2) (B2) (A1) (B2) (B2)
 The electronic state of the initial guess is 1-A1.
 Requested convergence on RMS density matrix=1.00D-08 within 128 cycles.
 Requested convergence on MAX density matrix=1.00D-06.
 Requested convergence on             energy=1.00D-06.
 No special actions if energy rises.
 Integral accuracy reduced to 1.0D-05 until final iterations.
 Initial convergence to 1.0D-05 achieved.  Increase integral accuracy.
 SCF Done:  E(RB3LYP) =  -768.892193908     A.U. after   15 cycles
            NFock= 15  Conv=0.48D-08     -V/T= 2.0103

 **********************************************************************

            Population analysis using the SCF Density.

 **********************************************************************

 Orbital symmetries:
       Occupied  (A1) (B2) (A1) (B2) (A1) (A1) (B2) (A1) (B2) (A1)
                 (B2) (B2) (A1) (B2) (A1) (A1) (B2) (A1) (B2) (A1)
                 (A1) (A1) (A1) (B2) (A1) (B2) (A1) (B2) (A1) (B2)
                 (A1) (B2) (A1) (B2) (A1) (A1) (B2) (B2) (A1) (A1)
                 (A1) (B2) (A1) (B2) (A1) (B2) (B1) (B2) (A1) (A1)
                 (B2) (B1) (B2) (A1) (B2) (A1) (B1) (A2) (B2) (A1)
                 (A2) (B1) (B1) (A2) (B1) (A2)
       Virtual   (A2) (B1) (B1) (A2) (B1) (B1) (A1) (A2) (A1) (B2)
                 (B2) (A1) (B2) (A1) (A1) (A2) (B2) (B2) (A1) (B2)
                 (A2) (B1) (B2) (A1) (A1) (A1) (B2) (A1) (B2) (A1)
                 (A1) (B2) (B2) (A1) (B2) (A1) (A1) (B2) (A1) (A1)
                 (A1) (B2) (B2) (B2) (A1) (A1) (B2) (A1) (B2) (A1)
                 (B1) (A1) (B1) (B2) (B2) (A2) (A1) (B1) (B2) (A1)
                 (B2) (A2) (A1) (B2) (A1) (B1) (B2) (A2) (B1) (A1)
                 (B2) (B1) (A2) (B1) (B1) (A2) (B1) (B2) (A1) (A2)
                 (A1) (B2) (A1) (B2) (A1) (B2) (A1) (B2) (A1) (B2)
                 (A2) (A1) (B2) (B1) (B2) (A1) (A2) (A1) (A2) (A1)
                 (B2) (B2) (B1) (B2) (A1) (B2) (B2) (A1) (A1) (B2)
                 (B2) (A1) (B2) (A1) (B2) (A1) (A1) (B2) (A1) (B2)
                 (B2) (A1) (B2) (B1) (A1) (A1) (B1) (B2) (A2) (A1)
                 (B1) (B2) (A1) (A1) (A2) (B1) (B2) (B2) (A1) (A2)
                 (A2) (B1) (B1) (A2) (B1) (B2) (A2) (B1) (B1) (A1)
                 (A2) (B2) (B2) (B2) (A1) (A1) (A1) (A1) (B2) (A2)
                 (B1) (A1) (B2) (A1) (A1) (A2) (B2) (A1) (B1) (B2)
                 (B2) (A1) (B2) (A1) (A1) (B1) (B2) (A1) (B1) (A1)
                 (B2) (A1) (A2) (B2) (A1) (B2) (B1) (A1) (A2) (B2)
                 (A2) (B2) (A1) (A2) (B2) (B1) (A2) (B1) (B2) (B1)
                 (A1) (A2) (B1) (A2) (B1) (A1) (B2) (B2) (A1) (B2)
                 (A2) (A1) (A1) (A2) (B2) (A1) (A2) (B2) (A1) (B2)
                 (A2) (B1) (A1) (B2) (A1) (B2) (A1) (B2) (B2) (A1)
                 (A1) (B2) (A1) (B2) (B2) (B2) (A1) (B2)
 The electronic state is 1-A1.
 Alpha  occ. eigenvalues --  -10.19901 -10.19773 -10.19769 -10.19719 -10.19717
 Alpha  occ. eigenvalues --  -10.19698 -10.19681 -10.19497 -10.19497 -10.19271
 Alpha  occ. eigenvalues --  -10.19255 -10.19131 -10.19120 -10.18972 -10.18969
 Alpha  occ. eigenvalues --  -10.18719 -10.18697 -10.18652 -10.18652 -10.17636
 Alpha  occ. eigenvalues --   -0.90574  -0.86735  -0.83158  -0.82332  -0.78603
 Alpha  occ. eigenvalues --   -0.77482  -0.74662  -0.73309  -0.71673  -0.70035
 Alpha  occ. eigenvalues --   -0.65026  -0.64032  -0.61235  -0.60058  -0.59329
 Alpha  occ. eigenvalues --   -0.56766  -0.53187  -0.51922  -0.51810  -0.50950
 Alpha  occ. eigenvalues --   -0.47565  -0.47321  -0.45918  -0.45543  -0.43654
 Alpha  occ. eigenvalues --   -0.42964  -0.42647  -0.42430  -0.42012  -0.41105
 Alpha  occ. eigenvalues --   -0.41104  -0.39113  -0.38798  -0.36842  -0.35329
 Alpha  occ. eigenvalues --   -0.34743  -0.34565  -0.34172  -0.34032  -0.33265
 Alpha  occ. eigenvalues --   -0.29700  -0.29293  -0.25800  -0.24645  -0.22672
 Alpha  occ. eigenvalues --   -0.20328
 Alpha virt. eigenvalues --   -0.07586  -0.05339  -0.01571   0.00364   0.01714
 Alpha virt. eigenvalues --    0.05501   0.06459   0.06757   0.06794   0.07005
 Alpha virt. eigenvalues --    0.08653   0.08940   0.11102   0.11180   0.13066
 Alpha virt. eigenvalues --    0.13413   0.13818   0.14946   0.16218   0.18539
 Alpha virt. eigenvalues --    0.20121   0.21155   0.22327   0.23735   0.24929
 Alpha virt. eigenvalues --    0.25161   0.25224   0.26654   0.28462   0.28504
 Alpha virt. eigenvalues --    0.28614   0.28799   0.30067   0.31524   0.31594
 Alpha virt. eigenvalues --    0.32539   0.32748   0.33618   0.34705   0.36399
 Alpha virt. eigenvalues --    0.37192   0.37232   0.37726   0.39801   0.40300
 Alpha virt. eigenvalues --    0.41341   0.42216   0.43165   0.43901   0.44045
 Alpha virt. eigenvalues --    0.44655   0.46284   0.46328   0.46732   0.47096
 Alpha virt. eigenvalues --    0.47913   0.48459   0.49037   0.49273   0.50025
 Alpha virt. eigenvalues --    0.50128   0.50608   0.51467   0.51657   0.52249
 Alpha virt. eigenvalues --    0.52809   0.54089   0.54367   0.55204   0.56657
 Alpha virt. eigenvalues --    0.57730   0.57766   0.58351   0.59477   0.62366
 Alpha virt. eigenvalues --    0.62478   0.64904   0.65766   0.66166   0.66255
 Alpha virt. eigenvalues --    0.66974   0.67323   0.67659   0.68560   0.69072
 Alpha virt. eigenvalues --    0.70433   0.70530   0.70797   0.71572   0.71591
 Alpha virt. eigenvalues --    0.71771   0.73330   0.73641   0.74020   0.74849
 Alpha virt. eigenvalues --    0.75305   0.75565   0.75733   0.78046   0.78495
 Alpha virt. eigenvalues --    0.78668   0.80085   0.80268   0.80673   0.80711
 Alpha virt. eigenvalues --    0.82628   0.83679   0.84646   0.86361   0.86947
 Alpha virt. eigenvalues --    0.91329   0.91388   0.94007   0.95379   0.99800
 Alpha virt. eigenvalues --    0.99961   1.02391   1.08577   1.09982   1.10232
 Alpha virt. eigenvalues --    1.13472   1.14857   1.16066   1.19588   1.21559
 Alpha virt. eigenvalues --    1.23110   1.24645   1.25144   1.25154   1.25295
 Alpha virt. eigenvalues --    1.26043   1.27761   1.29597   1.30962   1.31810
 Alpha virt. eigenvalues --    1.32012   1.34143   1.38276   1.38404   1.38482
 Alpha virt. eigenvalues --    1.39057   1.41068   1.45558   1.46224   1.46401
 Alpha virt. eigenvalues --    1.46534   1.47363   1.47543   1.49123   1.49204
 Alpha virt. eigenvalues --    1.49434   1.49720   1.51266   1.62686   1.65087
 Alpha virt. eigenvalues --    1.72579   1.74341   1.74685   1.74925   1.75160
 Alpha virt. eigenvalues --    1.75544   1.77192   1.77702   1.78216   1.83719
 Alpha virt. eigenvalues --    1.83888   1.84589   1.85577   1.86292   1.87493
 Alpha virt. eigenvalues --    1.87985   1.88224   1.91687   1.92010   1.94013
 Alpha virt. eigenvalues --    1.95413   1.98269   2.02778   2.05120   2.05395
 Alpha virt. eigenvalues --    2.06509   2.07788   2.07940   2.10140   2.11830
 Alpha virt. eigenvalues --    2.13010   2.13967   2.14679   2.16337   2.17050
 Alpha virt. eigenvalues --    2.17495   2.22178   2.22430   2.22518   2.24727
 Alpha virt. eigenvalues --    2.25492   2.26256   2.27188   2.29005   2.29428
 Alpha virt. eigenvalues --    2.30023   2.32922   2.33549   2.36456   2.41836
 Alpha virt. eigenvalues --    2.46365   2.47762   2.48891   2.49543   2.49812
 Alpha virt. eigenvalues --    2.53808   2.56102   2.57033   2.60298   2.61256
 Alpha virt. eigenvalues --    2.62964   2.64019   2.66920   2.67894   2.68676
 Alpha virt. eigenvalues --    2.70411   2.71703   2.73351   2.75028   2.75058
 Alpha virt. eigenvalues --    2.78587   2.83352   2.84349   2.87721   2.90438
 Alpha virt. eigenvalues --    2.94103   2.97869   3.14710   3.24507   3.36516
 Alpha virt. eigenvalues --    3.40954   3.41248   3.57306
          Condensed to atoms (all electrons):
               1          2          3          4          5          6
     1  C    5.229192   0.152779   0.145601  -0.155964  -0.002058   0.000308
     2  C    0.152779   5.229192   0.229180   0.137243   0.019695  -0.001352
     3  C    0.145601   0.229180   5.438678   0.206857  -0.146254   0.014873
     4  C   -0.155964   0.137243   0.206857   5.360886   0.222776   0.152867
     5  C   -0.002058   0.019695  -0.146254   0.222776   5.662186   0.281971
     6  C    0.000308  -0.001352   0.014873   0.152867   0.281971   5.647330
     7  C   -0.001352   0.000308  -0.000683  -0.148853   0.022597   0.058486
     8  C    0.019695  -0.002058   0.021738   0.013929  -0.109201   0.022597
     9  C    0.137243  -0.155964   0.055412   0.057909   0.013929  -0.148853
    10  C    0.229180   0.145601  -0.173574   0.055412   0.021738  -0.000683
    11  C    0.000013  -0.000007   0.000179  -0.000140   0.023373  -0.051156
    12  C    0.000000  -0.000000   0.000001   0.000132  -0.000649   0.024094
    13  C    0.000000   0.000000  -0.000000   0.000004  -0.000004  -0.000579
    14  C    0.000000  -0.000000   0.000000  -0.000002   0.000017  -0.000378
    15  C    0.000000   0.000000  -0.000000   0.000007  -0.000642   0.028680
    16  C   -0.000000   0.000000  -0.000000   0.000005   0.000062  -0.003399
    17  C    0.000000   0.000000   0.000000  -0.000021  -0.000303   0.022442
    18  C   -0.000000   0.000000  -0.000025  -0.000589  -0.017977  -0.177692
    19  C   -0.000007   0.000013  -0.001139   0.019431  -0.166962   0.169073
    20  C    0.000000   0.000000   0.000005  -0.000623   0.023619  -0.083036
    21  H    0.434888  -0.084990   0.014936  -0.001335   0.000047  -0.000002
    22  H   -0.084990   0.434888  -0.076674   0.016491  -0.000537   0.000011
    23  H    0.015738  -0.081083   0.437878  -0.080127  -0.021823   0.001161
    24  H   -0.000037   0.000631  -0.015211  -0.091087   0.430730  -0.058375
    25  H    0.000631  -0.000037  -0.000185   0.015112  -0.002786   0.020458
    26  H   -0.081083   0.015738  -0.002083   0.016020  -0.000288  -0.000022
    27  H    0.000000  -0.000000   0.000000  -0.000006   0.000030  -0.000928
    28  H    0.000000  -0.000000   0.000000   0.000000  -0.000000   0.000016
    29  H   -0.000000   0.000000  -0.000000   0.000000  -0.000000   0.000014
    30  H    0.000000  -0.000000   0.000000   0.000000  -0.000000   0.000052
    31  H   -0.000000   0.000000  -0.000000  -0.000000  -0.000002  -0.000494
    32  H   -0.000000   0.000000  -0.000017   0.000234   0.006951  -0.030936
               7          8          9         10         11         12
     1  C   -0.001352   0.019695   0.137243   0.229180   0.000013   0.000000
     2  C    0.000308  -0.002058  -0.155964   0.145601  -0.000007  -0.000000
     3  C   -0.000683   0.021738   0.055412  -0.173574   0.000179   0.000001
     4  C   -0.148853   0.013929   0.057909   0.055412  -0.000140   0.000132
     5  C    0.022597  -0.109201   0.013929   0.021738   0.023373  -0.000649
     6  C    0.058486   0.022597  -0.148853  -0.000683  -0.051156   0.024094
     7  C    5.647330   0.281971   0.152867   0.014873   0.169073  -0.177692
     8  C    0.281971   5.662186   0.222776  -0.146254  -0.166962  -0.017977
     9  C    0.152867   0.222776   5.360886   0.206857   0.019431  -0.000589
    10  C    0.014873  -0.146254   0.206857   5.438678  -0.001139  -0.000025
    11  C    0.169073  -0.166962   0.019431  -0.001139   5.696691   0.243587
    12  C   -0.177692  -0.017977  -0.000589  -0.000025   0.243587   5.525384
    13  C    0.022442  -0.000303  -0.000021   0.000000   0.166223   0.159000
    14  C   -0.003399   0.000062   0.000005  -0.000000  -0.190051   0.140863
    15  C    0.028680  -0.000642   0.000007  -0.000000  -0.013371  -0.152901
    16  C   -0.000378   0.000017  -0.000002   0.000000   0.036556  -0.003932
    17  C   -0.000579  -0.000004   0.000004  -0.000000  -0.003543   0.000361
    18  C    0.024094  -0.000649   0.000132   0.000001   0.030804  -0.001700
    19  C   -0.051156   0.023373  -0.000140   0.000179  -0.125860   0.030804
    20  C   -0.083036   0.023619  -0.000623   0.000005   0.099859   0.041237
    21  H    0.000011  -0.000537   0.016491  -0.076674  -0.000000  -0.000000
    22  H   -0.000002   0.000047  -0.001335   0.014936   0.000000   0.000000
    23  H   -0.000022  -0.000288   0.016020  -0.002083   0.000002   0.000000
    24  H    0.020458  -0.002786   0.015112  -0.000185  -0.000585   0.000015
    25  H   -0.058375   0.430730  -0.091087  -0.015211  -0.028987   0.006774
    26  H    0.001161  -0.021823  -0.080127   0.437878  -0.000035   0.000002
    27  H   -0.030936   0.006951   0.000234  -0.000017  -0.058827   0.428798
    28  H   -0.000494  -0.000002  -0.000000  -0.000000   0.015354  -0.078302
    29  H    0.000052  -0.000000   0.000000   0.000000  -0.001162   0.013460
    30  H    0.000014  -0.000000   0.000000  -0.000000  -0.000634   0.000058
    31  H    0.000016  -0.000000   0.000000   0.000000   0.000040  -0.000001
    32  H   -0.000928   0.000030  -0.000006   0.000000  -0.000523   0.000013
              13         14         15         16         17         18
     1  C    0.000000   0.000000   0.000000  -0.000000   0.000000  -0.000000
     2  C    0.000000  -0.000000   0.000000   0.000000   0.000000   0.000000
     3  C   -0.000000   0.000000  -0.000000  -0.000000   0.000000  -0.000025
     4  C    0.000004  -0.000002   0.000007   0.000005  -0.000021  -0.000589
     5  C   -0.000004   0.000017  -0.000642   0.000062  -0.000303  -0.017977
     6  C   -0.000579  -0.000378   0.028680  -0.003399   0.022442  -0.177692
     7  C    0.022442  -0.003399   0.028680  -0.000378  -0.000579   0.024094
     8  C   -0.000303   0.000062  -0.000642   0.000017  -0.000004  -0.000649
     9  C   -0.000021   0.000005   0.000007  -0.000002   0.000004   0.000132
    10  C    0.000000  -0.000000  -0.000000   0.000000  -0.000000   0.000001
    11  C    0.166223  -0.190051  -0.013371   0.036556  -0.003543   0.030804
    12  C    0.159000   0.140863  -0.152901  -0.003932   0.000361  -0.001700
    13  C    5.189560   0.251065   0.135999   0.016412  -0.000635   0.000361
    14  C    0.251065   5.454732   0.225307  -0.173588   0.016412  -0.003932
    15  C    0.135999   0.225307   5.424403   0.225307   0.135999  -0.152901
    16  C    0.016412  -0.173588   0.225307   5.454732   0.251065   0.140863
    17  C   -0.000635   0.016412   0.135999   0.251065   5.189560   0.159000
    18  C    0.000361  -0.003932  -0.152901   0.140863   0.159000   5.525384
    19  C   -0.003543   0.036556  -0.013371  -0.190051   0.166223   0.243587
    20  C   -0.177946   0.057479   0.022949   0.057479  -0.177946   0.041237
    21  H   -0.000000   0.000000  -0.000000  -0.000000   0.000000   0.000000
    22  H    0.000000  -0.000000  -0.000000   0.000000  -0.000000  -0.000000
    23  H    0.000000  -0.000000   0.000000   0.000000  -0.000000   0.000002
    24  H   -0.000001   0.000001   0.000035  -0.000019   0.000178   0.006774
    25  H    0.000178  -0.000019   0.000035   0.000001  -0.000001   0.000015
    26  H   -0.000000   0.000000   0.000000  -0.000000   0.000000   0.000000
    27  H   -0.090110   0.013780  -0.001968   0.000024   0.000002   0.000013
    28  H    0.431095  -0.075003   0.015004  -0.000273   0.000007  -0.000001
    29  H   -0.077449   0.421089  -0.069936  -0.016496  -0.000326   0.000058
    30  H   -0.000326  -0.016496  -0.069936   0.421089  -0.077449   0.013460
    31  H    0.000007  -0.000273   0.015004  -0.075003   0.431095  -0.078302
    32  H    0.000002   0.000024  -0.001968   0.013780  -0.090110   0.428798
              19         20         21         22         23         24
     1  C   -0.000007   0.000000   0.434888  -0.084990   0.015738  -0.000037
     2  C    0.000013   0.000000  -0.084990   0.434888  -0.081083   0.000631
     3  C   -0.001139   0.000005   0.014936  -0.076674   0.437878  -0.015211
     4  C    0.019431  -0.000623  -0.001335   0.016491  -0.080127  -0.091087
     5  C   -0.166962   0.023619   0.000047  -0.000537  -0.021823   0.430730
     6  C    0.169073  -0.083036  -0.000002   0.000011   0.001161  -0.058375
     7  C   -0.051156  -0.083036   0.000011  -0.000002  -0.000022   0.020458
     8  C    0.023373   0.023619  -0.000537   0.000047  -0.000288  -0.002786
     9  C   -0.000140  -0.000623   0.016491  -0.001335   0.016020   0.015112
    10  C    0.000179   0.000005  -0.076674   0.014936  -0.002083  -0.000185
    11  C   -0.125860   0.099859  -0.000000   0.000000   0.000002  -0.000585
    12  C    0.030804   0.041237  -0.000000   0.000000   0.000000   0.000015
    13  C   -0.003543  -0.177946  -0.000000   0.000000   0.000000  -0.000001
    14  C    0.036556   0.057479   0.000000  -0.000000  -0.000000   0.000001
    15  C   -0.013371   0.022949  -0.000000  -0.000000   0.000000   0.000035
    16  C   -0.190051   0.057479  -0.000000   0.000000   0.000000  -0.000019
    17  C    0.166223  -0.177946   0.000000  -0.000000  -0.000000   0.000178
    18  C    0.243587   0.041237   0.000000  -0.000000   0.000002   0.006774
    19  C    5.696691   0.099859   0.000000  -0.000000  -0.000035  -0.028987
    20  C    0.099859   5.988489   0.000000   0.000000  -0.000001  -0.001003
    21  H    0.000000   0.000000   0.672537  -0.011566  -0.000323  -0.000001
    22  H   -0.000000   0.000000  -0.011566   0.672537  -0.013508  -0.000016
    23  H   -0.000035  -0.000001  -0.000323  -0.013508   0.682256   0.006690
    24  H   -0.028987  -0.001003  -0.000001  -0.000016   0.006690   0.692541
    25  H   -0.000585  -0.001003  -0.000016  -0.000001   0.000011   0.000025
    26  H    0.000002  -0.000001  -0.013508  -0.000323   0.000038   0.000011
    27  H   -0.000523   0.023853   0.000000  -0.000000  -0.000000   0.000001
    28  H    0.000040  -0.001819   0.000000  -0.000000   0.000000   0.000000
    29  H   -0.000634   0.019866  -0.000000  -0.000000  -0.000000  -0.000000
    30  H   -0.001162   0.019866  -0.000000  -0.000000   0.000000  -0.000000
    31  H    0.015354  -0.001819  -0.000000   0.000000   0.000000   0.000006
    32  H   -0.058827   0.023853  -0.000000   0.000000  -0.000001   0.001130
              25         26         27         28         29         30
     1  C    0.000631  -0.081083   0.000000   0.000000  -0.000000   0.000000
     2  C   -0.000037   0.015738  -0.000000  -0.000000   0.000000  -0.000000
     3  C   -0.000185  -0.002083   0.000000   0.000000  -0.000000   0.000000
     4  C    0.015112   0.016020  -0.000006   0.000000   0.000000   0.000000
     5  C   -0.002786  -0.000288   0.000030  -0.000000  -0.000000  -0.000000
     6  C    0.020458  -0.000022  -0.000928   0.000016   0.000014   0.000052
     7  C   -0.058375   0.001161  -0.030936  -0.000494   0.000052   0.000014
     8  C    0.430730  -0.021823   0.006951  -0.000002  -0.000000  -0.000000
     9  C   -0.091087  -0.080127   0.000234  -0.000000   0.000000   0.000000
    10  C   -0.015211   0.437878  -0.000017  -0.000000   0.000000  -0.000000
    11  C   -0.028987  -0.000035  -0.058827   0.015354  -0.001162  -0.000634
    12  C    0.006774   0.000002   0.428798  -0.078302   0.013460   0.000058
    13  C    0.000178  -0.000000  -0.090110   0.431095  -0.077449  -0.000326
    14  C   -0.000019   0.000000   0.013780  -0.075003   0.421089  -0.016496
    15  C    0.000035   0.000000  -0.001968   0.015004  -0.069936  -0.069936
    16  C    0.000001  -0.000000   0.000024  -0.000273  -0.016496   0.421089
    17  C   -0.000001   0.000000   0.000002   0.000007  -0.000326  -0.077449
    18  C    0.000015   0.000000   0.000013  -0.000001   0.000058   0.013460
    19  C   -0.000585   0.000002  -0.000523   0.000040  -0.000634  -0.001162
    20  C   -0.001003  -0.000001   0.023853  -0.001819   0.019866   0.019866
    21  H   -0.000016  -0.013508   0.000000   0.000000  -0.000000  -0.000000
    22  H   -0.000001  -0.000323  -0.000000  -0.000000  -0.000000  -0.000000
    23  H    0.000011   0.000038  -0.000000   0.000000  -0.000000   0.000000
    24  H    0.000025   0.000011   0.000001   0.000000  -0.000000  -0.000000
    25  H    0.692541   0.006690   0.001130   0.000006  -0.000000  -0.000000
    26  H    0.006690   0.682256  -0.000001   0.000000   0.000000  -0.000000
    27  H    0.001130  -0.000001   0.685482  -0.011115  -0.000243  -0.000001
    28  H    0.000006   0.000000  -0.011115   0.662567  -0.011865  -0.000005
    29  H   -0.000000   0.000000  -0.000243  -0.011865   0.675190   0.006642
    30  H   -0.000000  -0.000000  -0.000001  -0.000005   0.006642   0.675190
    31  H    0.000000   0.000000   0.000000  -0.000000  -0.000005  -0.011865
    32  H    0.000001  -0.000000  -0.000001   0.000000  -0.000001  -0.000243
              31         32
     1  C   -0.000000  -0.000000
     2  C    0.000000   0.000000
     3  C   -0.000000  -0.000017
     4  C   -0.000000   0.000234
     5  C   -0.000002   0.006951
     6  C   -0.000494  -0.030936
     7  C    0.000016  -0.000928
     8  C   -0.000000   0.000030
     9  C    0.000000  -0.000006
    10  C    0.000000   0.000000
    11  C    0.000040  -0.000523
    12  C   -0.000001   0.000013
    13  C    0.000007   0.000002
    14  C   -0.000273   0.000024
    15  C    0.015004  -0.001968
    16  C   -0.075003   0.013780
    17  C    0.431095  -0.090110
    18  C   -0.078302   0.428798
    19  C    0.015354  -0.058827
    20  C   -0.001819   0.023853
    21  H   -0.000000  -0.000000
    22  H    0.000000   0.000000
    23  H    0.000000  -0.000001
    24  H    0.000006   0.001130
    25  H    0.000000   0.000001
    26  H    0.000000  -0.000000
    27  H    0.000000  -0.000001
    28  H   -0.000000   0.000000
    29  H   -0.000005  -0.000001
    30  H   -0.011865  -0.000243
    31  H    0.662567  -0.011115
    32  H   -0.011115   0.685482
 Mulliken charges:
               1
     1  C   -0.039776
     2  C   -0.039776
     3  C   -0.149495
     4  C    0.203435
     5  C   -0.260233
     6  C    0.113456
     7  C    0.113456
     8  C   -0.260233
     9  C    0.203435
    10  C   -0.149495
    11  C    0.141795
    12  C   -0.180816
    13  C   -0.021429
    14  C   -0.154251
    15  C    0.220223
    16  C   -0.154251
    17  C   -0.021429
    18  C   -0.180816
    19  C    0.141795
    20  C   -0.014418
    21  H    0.050043
    22  H    0.050043
    23  H    0.039499
    24  H    0.023956
    25  H    0.023956
    26  H    0.039499
    27  H    0.034376
    28  H    0.054790
    29  H    0.041749
    30  H    0.041749
    31  H    0.054790
    32  H    0.034376
 Sum of Mulliken charges =  -0.00000
 Mulliken charges with hydrogens summed into heavy atoms:
               1
     1  C    0.010267
     2  C    0.010267
     3  C   -0.109996
     4  C    0.203435
     5  C   -0.236277
     6  C    0.113456
     7  C    0.113456
     8  C   -0.236277
     9  C    0.203435
    10  C   -0.109996
    11  C    0.141795
    12  C   -0.146440
    13  C    0.033360
    14  C   -0.112502
    15  C    0.220223
    16  C   -0.112502
    17  C    0.033360
    18  C   -0.146440
    19  C    0.141795
    20  C   -0.014418
 Electronic spatial extent (au):  <R**2>=           5767.2671
 Charge=              0.0000 electrons
 Dipole moment (field-independent basis, Debye):
    X=             -0.0000    Y=             -0.0000    Z=              0.3675  Tot=              0.3675
 Quadrupole moment (field-independent basis, Debye-Ang):
   XX=           -121.7859   YY=           -100.0424   ZZ=           -101.1909
   XY=              0.0000   XZ=              0.0000   YZ=             -0.0000
 Traceless Quadrupole moment (field-independent basis, Debye-Ang):
   XX=            -14.1128   YY=              7.6307   ZZ=              6.4821
   XY=              0.0000   XZ=              0.0000   YZ=             -0.0000
 Octapole moment (field-independent basis, Debye-Ang**2):
  XXX=              0.0000  YYY=             -0.0000  ZZZ=              3.7120  XYY=              0.0000
  XXY=              0.0000  XXZ=              0.5613  XZZ=              0.0000  YZZ=             -0.0000
  YYZ=              2.0306  XYZ=              0.0000
 Hexadecapole moment (field-independent basis, Debye-Ang**3):
 XXXX=           -134.3712 YYYY=          -1543.9014 ZZZZ=          -5754.4619 XXXY=             -0.0000
 XXXZ=              0.0000 YYYX=             -0.0000 YYYZ=             -0.0000 ZZZX=              0.0000
 ZZZY=              0.0000 XXYY=           -333.2377 XXZZ=          -1179.6664 YYZZ=          -1216.7279
 XXYZ=              0.0000 YYXZ=              0.0000 ZZXY=             -0.0000
 N-N= 1.333524139644D+03 E-N=-4.446118854910D+03  KE= 7.610907395563D+02
 Symmetry A1   KE= 4.069477301072D+02
 Symmetry A2   KE= 8.931221799932D+00
 Symmetry B1   KE= 1.253611268556D+01
 Symmetry B2   KE= 3.326756749636D+02
   4 Symmetry operations used in ECPInt.
 ECPInt:  NShTT=   10440 NPrTT=   41912 LenC2=    9661 LenP2D=   26950.
 LDataN:  DoStor=T MaxTD1= 5 Len=  102
 Calling FoFJK, ICntrl=      2127 FMM=F ISym2X=1 I1Cent= 0 IOpClX= 0 NMat=1 NMatS=1 NMatT=0.
 ***** Axes restored to original set *****
 -------------------------------------------------------------------
 Center     Atomic                   Forces (Hartrees/Bohr)
 Number     Number              X              Y              Z
 -------------------------------------------------------------------
      1        6           0.000000000   -0.001650857   -0.003575296
      2        6           0.000000000    0.001650857   -0.003575296
      3        6          -0.000000000    0.000362057    0.016456229
      4        6           0.000000000   -0.006004977    0.001485024
      5        6          -0.000000000   -0.009531300   -0.020290362
      6        6          -0.000000000   -0.003440830    0.020577448
      7        6          -0.000000000    0.003440830    0.020577448
      8        6          -0.000000000    0.009531300   -0.020290362
      9        6           0.000000000    0.006004977    0.001485024
     10        6          -0.000000000   -0.000362057    0.016456229
     11        6           0.000000000   -0.042765984    0.002270209
     12        6           0.000000000    0.002074415    0.002744732
     13        6           0.000000000    0.019365321   -0.016968771
     14        6           0.000000000   -0.017457416    0.005849386
     15        6          -0.000000000   -0.000000000   -0.007373576
     16        6           0.000000000    0.017457416    0.005849386
     17        6           0.000000000   -0.019365321   -0.016968771
     18        6           0.000000000   -0.002074415    0.002744732
     19        6           0.000000000    0.042765984    0.002270209
     20        6          -0.000000000    0.000000000   -0.007019445
     21        1           0.000000000   -0.001724304    0.004589660
     22        1           0.000000000    0.001724304    0.004589660
     23        1          -0.000000000    0.004920039   -0.003575122
     24        1          -0.000000000    0.006064319    0.002458190
     25        1          -0.000000000   -0.006064319    0.002458190
     26        1          -0.000000000   -0.004920039   -0.003575122
     27        1           0.000000000   -0.005775731    0.003010652
     28        1           0.000000000   -0.003062584   -0.002704359
     29        1           0.000000000   -0.000447195   -0.005131108
     30        1           0.000000000    0.000447195   -0.005131108
     31        1           0.000000000    0.003062584   -0.002704359
     32        1           0.000000000    0.005775731    0.003010652
 -------------------------------------------------------------------
 Cartesian Forces:  Max     0.042765984 RMS     0.009521564

 GradGradGradGradGradGradGradGradGradGradGradGradGradGradGradGradGradGrad
 Berny optimization.
 FormGI is forming the generalized inverse of G from B-inverse, IUseBI=4.
 Internal  Forces:  Max     0.026789081 RMS     0.005732286
 Search for a local minimum.
 Step number   1 out of a maximum of  192
 All quantities printed in internal units (Hartrees-Bohrs-Radians)
 Mixed Optimization -- RFO/linear search
 Second derivative matrix not updated -- first step.
 ITU=  0
     Eigenvalues ---    0.01680   0.01759   0.01810   0.01864   0.01881
     Eigenvalues ---    0.01884   0.01885   0.01889   0.01922   0.01931
     Eigenvalues ---    0.01958   0.01969   0.01969   0.02018   0.02024
     Eigenvalues ---    0.02082   0.02106   0.02109   0.02115   0.02139
     Eigenvalues ---    0.02147   0.02152   0.02165   0.02173   0.02175
     Eigenvalues ---    0.02177   0.02194   0.02231   0.02277   0.16000
     Eigenvalues ---    0.16000   0.16000   0.16000   0.16000   0.16000
     Eigenvalues ---    0.16000   0.16000   0.16000   0.16000   0.16000
     Eigenvalues ---    0.16000   0.22000   0.22064   0.22223   0.22508
     Eigenvalues ---    0.23236   0.23386   0.23757   0.23945   0.24550
     Eigenvalues ---    0.24908   0.24974   0.25000   0.25000   0.33319
     Eigenvalues ---    0.35041   0.35041   0.35091   0.35091   0.35153
     Eigenvalues ---    0.35153   0.35168   0.35168   0.35407   0.35407
     Eigenvalues ---    0.35437   0.35437   0.35950   0.35997   0.38395
     Eigenvalues ---    0.38995   0.40127   0.40761   0.41433   0.42069
     Eigenvalues ---    0.42101   0.42776   0.43616   0.43656   0.43948
     Eigenvalues ---    0.44862   0.44884   0.45767   0.46052   0.47182
     Eigenvalues ---    0.47350   0.47804   0.47837   0.47933   0.48076
 RFO step:  Lambda=-1.60445682D-02 EMin= 1.68019553D-02
 Linear search not attempted -- first point.
 Iteration  1 RMS(Cart)=  0.04035388 RMS(Int)=  0.00025209
 Iteration  2 RMS(Cart)=  0.00040027 RMS(Int)=  0.00004807
 Iteration  3 RMS(Cart)=  0.00000006 RMS(Int)=  0.00004807
 ClnCor:  largest displacement from symmetrization is 3.68D-09 for atom    29.
 Variable       Old X    -DE/DX   Delta X   Delta X   Delta X     New X
                                 (Linear)    (Quad)   (Total)
    R1        2.66086   0.00514   0.00000   0.01091   0.01089   2.67175
    R2        2.61368   0.00176   0.00000   0.00338   0.00337   2.61705
    R3        2.05427   0.00483   0.00000   0.01314   0.01314   2.06741
    R4        2.61368   0.00176   0.00000   0.00338   0.00337   2.61705
    R5        2.05427   0.00483   0.00000   0.01314   0.01314   2.06741
    R6        2.65215   0.01388   0.00000   0.02989   0.02989   2.68205
    R7        2.05528   0.00481   0.00000   0.01310   0.01310   2.06838
    R8        2.66271   0.01354   0.00000   0.02998   0.03002   2.69273
    R9        2.73251  -0.00194   0.00000  -0.00361  -0.00353   2.72898
   R10        2.61377  -0.00417   0.00000  -0.00868  -0.00871   2.60506
   R11        2.05020   0.00604   0.00000   0.01631   0.01631   2.06651
   R12        2.73422   0.01120   0.00000   0.02076   0.02056   2.75478
   R13        2.72905   0.02265   0.00000   0.05404   0.05400   2.78305
   R14        2.61377  -0.00417   0.00000  -0.00868  -0.00871   2.60506
   R15        2.72905   0.02265   0.00000   0.05404   0.05400   2.78305
   R16        2.66271   0.01354   0.00000   0.02998   0.03002   2.69273
   R17        2.05020   0.00604   0.00000   0.01631   0.01631   2.06651
   R18        2.65215   0.01388   0.00000   0.02989   0.02989   2.68205
   R19        2.05528   0.00481   0.00000   0.01310   0.01310   2.06838
   R20        2.61296   0.00503   0.00000   0.01129   0.01137   2.62433
   R21        2.61675   0.02679   0.00000   0.06208   0.06228   2.67903
   R22        2.65704   0.01515   0.00000   0.02945   0.02943   2.68647
   R23        2.04970   0.00648   0.00000   0.01749   0.01749   2.06720
   R24        2.66862  -0.01371   0.00000  -0.03499  -0.03508   2.63354
   R25        2.05608   0.00395   0.00000   0.01077   0.01077   2.06684
   R26        2.68026   0.00544   0.00000   0.01080   0.01072   2.69098
   R27        2.05403   0.00515   0.00000   0.01401   0.01401   2.06803
   R28        2.68026   0.00544   0.00000   0.01080   0.01072   2.69098
   R29        2.63155   0.01468   0.00000   0.03691   0.03694   2.66849
   R30        2.66862  -0.01371   0.00000  -0.03499  -0.03508   2.63354
   R31        2.05403   0.00515   0.00000   0.01401   0.01401   2.06803
   R32        2.65704   0.01515   0.00000   0.02945   0.02943   2.68647
   R33        2.05608   0.00395   0.00000   0.01077   0.01077   2.06684
   R34        2.61296   0.00503   0.00000   0.01129   0.01137   2.62433
   R35        2.04970   0.00648   0.00000   0.01749   0.01749   2.06720
   R36        2.61675   0.02679   0.00000   0.06208   0.06228   2.67903
    A1        2.09469   0.00025   0.00000   0.00021   0.00020   2.09489
    A2        2.10160  -0.00099   0.00000  -0.00498  -0.00498   2.09662
    A3        2.08689   0.00073   0.00000   0.00478   0.00478   2.09167
    A4        2.09469   0.00025   0.00000   0.00021   0.00020   2.09489
    A5        2.10160  -0.00099   0.00000  -0.00498  -0.00498   2.09662
    A6        2.08689   0.00073   0.00000   0.00478   0.00478   2.09167
    A7        2.11762   0.00046   0.00000   0.00190   0.00191   2.11953
    A8        2.06387   0.00360   0.00000   0.02079   0.02079   2.08466
    A9        2.10170  -0.00406   0.00000  -0.02269  -0.02270   2.07899
   A10        2.11083   0.00425   0.00000   0.01547   0.01541   2.12624
   A11        2.07087  -0.00071   0.00000  -0.00211  -0.00212   2.06876
   A12        2.10149  -0.00354   0.00000  -0.01337  -0.01329   2.08819
   A13        2.06957   0.00608   0.00000   0.02374   0.02372   2.09329
   A14        2.11233  -0.00563   0.00000  -0.02657  -0.02656   2.08578
   A15        2.10128  -0.00045   0.00000   0.00283   0.00283   2.10411
   A16        2.11213  -0.00254   0.00000  -0.01037  -0.01043   2.10170
   A17        2.31386  -0.00339   0.00000  -0.00789  -0.00777   2.30608
   A18        1.85720   0.00593   0.00000   0.01827   0.01820   1.87540
   A19        2.11213  -0.00254   0.00000  -0.01037  -0.01043   2.10170
   A20        1.85720   0.00593   0.00000   0.01827   0.01820   1.87540
   A21        2.31386  -0.00339   0.00000  -0.00789  -0.00777   2.30608
   A22        2.06957   0.00608   0.00000   0.02374   0.02372   2.09329
   A23        2.10128  -0.00045   0.00000   0.00283   0.00283   2.10411
   A24        2.11233  -0.00563   0.00000  -0.02657  -0.02656   2.08578
   A25        2.10149  -0.00354   0.00000  -0.01337  -0.01329   2.08819
   A26        2.07087  -0.00071   0.00000  -0.00211  -0.00212   2.06876
   A27        2.11083   0.00425   0.00000   0.01547   0.01541   2.12624
   A28        2.11762   0.00046   0.00000   0.00190   0.00191   2.11953
   A29        2.06387   0.00360   0.00000   0.02079   0.02079   2.08466
   A30        2.10170  -0.00406   0.00000  -0.02269  -0.02270   2.07899
   A31        2.30275   0.01584   0.00000   0.04704   0.04688   2.34963
   A32        1.89887  -0.00967   0.00000  -0.03334  -0.03333   1.86554
   A33        2.08157  -0.00617   0.00000  -0.01370  -0.01355   2.06802
   A34        2.06689   0.00003   0.00000   0.00121   0.00132   2.06821
   A35        2.11491   0.00066   0.00000   0.00320   0.00315   2.11806
   A36        2.10138  -0.00068   0.00000  -0.00441  -0.00447   2.09692
   A37        2.11831   0.00733   0.00000   0.02045   0.02039   2.13870
   A38        2.08235  -0.00257   0.00000  -0.00403  -0.00400   2.07835
   A39        2.08252  -0.00475   0.00000  -0.01641  -0.01638   2.06614
   A40        2.10335   0.00083   0.00000  -0.00334  -0.00346   2.09989
   A41        2.08517  -0.00043   0.00000   0.00157   0.00163   2.08680
   A42        2.09467  -0.00040   0.00000   0.00177   0.00183   2.09650
   A43        2.26123  -0.00345   0.00000  -0.02091  -0.02088   2.24036
   A44        2.01098   0.00173   0.00000   0.01045   0.01044   2.02141
   A45        2.01098   0.00173   0.00000   0.01045   0.01044   2.02141
   A46        2.10335   0.00083   0.00000  -0.00334  -0.00346   2.09989
   A47        2.09467  -0.00040   0.00000   0.00177   0.00183   2.09650
   A48        2.08517  -0.00043   0.00000   0.00157   0.00163   2.08680
   A49        2.11831   0.00733   0.00000   0.02045   0.02039   2.13870
   A50        2.08252  -0.00475   0.00000  -0.01641  -0.01638   2.06614
   A51        2.08235  -0.00257   0.00000  -0.00403  -0.00400   2.07835
   A52        2.06689   0.00003   0.00000   0.00121   0.00132   2.06821
   A53        2.10138  -0.00068   0.00000  -0.00441  -0.00447   2.09692
   A54        2.11491   0.00066   0.00000   0.00320   0.00315   2.11806
   A55        2.30275   0.01584   0.00000   0.04704   0.04688   2.34963
   A56        1.89887  -0.00967   0.00000  -0.03334  -0.03333   1.86554
   A57        2.08157  -0.00617   0.00000  -0.01370  -0.01355   2.06802
   A58        2.18527  -0.00374   0.00000  -0.01507  -0.01513   2.17014
   A59        1.91264   0.00748   0.00000   0.03015   0.03026   1.94290
   A60        2.18527  -0.00374   0.00000  -0.01507  -0.01513   2.17014
    D1        0.00000   0.00000   0.00000   0.00000   0.00000   0.00000
    D2        3.14159  -0.00000   0.00000  -0.00000   0.00000   3.14159
    D3        3.14159   0.00000   0.00000   0.00000   0.00000   3.14159
    D4       -0.00000   0.00000   0.00000   0.00000   0.00000   0.00000
    D5       -0.00000   0.00000   0.00000   0.00000   0.00000   0.00000
    D6        3.14159   0.00000   0.00000   0.00000   0.00000   3.14159
    D7        3.14159   0.00000   0.00000   0.00000   0.00000   3.14159
    D8       -0.00000   0.00000   0.00000   0.00000   0.00000   0.00000
    D9        0.00000  -0.00000   0.00000  -0.00000   0.00000   0.00000
   D10        3.14159  -0.00000   0.00000  -0.00000   0.00000   3.14159
   D11        3.14159  -0.00000   0.00000  -0.00000   0.00000   3.14159
   D12        0.00000   0.00000   0.00000   0.00000  -0.00000   0.00000
   D13        3.14159   0.00000   0.00000   0.00000   0.00000   3.14159
   D14       -0.00000   0.00000   0.00000   0.00000   0.00000   0.00000
   D15       -0.00000   0.00000   0.00000   0.00000   0.00000   0.00000
   D16        3.14159   0.00000   0.00000   0.00000   0.00000   3.14159
   D17        3.14159  -0.00000   0.00000  -0.00000   0.00000   3.14159
   D18        0.00000  -0.00000   0.00000  -0.00000  -0.00000   0.00000
   D19        0.00000  -0.00000   0.00000  -0.00000   0.00000   0.00000
   D20        3.14159  -0.00000   0.00000  -0.00000   0.00000   3.14159
   D21        3.14159   0.00000   0.00000   0.00000   0.00000   3.14159
   D22        0.00000   0.00000   0.00000   0.00000   0.00000   0.00000
   D23       -0.00000   0.00000   0.00000   0.00000   0.00000   0.00000
   D24        3.14159  -0.00000   0.00000  -0.00000   0.00000   3.14159
   D25       -0.00000   0.00000   0.00000   0.00000   0.00000   0.00000
   D26        3.14159   0.00000   0.00000   0.00000   0.00000   3.14159
   D27        3.14159  -0.00000   0.00000  -0.00000   0.00000   3.14159
   D28       -0.00000   0.00000   0.00000   0.00000   0.00000   0.00000
   D29       -0.00000   0.00000   0.00000   0.00000   0.00000   0.00000
   D30        3.14159   0.00000   0.00000   0.00000   0.00000   3.14159
   D31        3.14159  -0.00000   0.00000  -0.00000   0.00000   3.14159
   D32       -0.00000   0.00000   0.00000   0.00000   0.00000   0.00000
   D33        0.00000   0.00000   0.00000   0.00000   0.00000   0.00000
   D34        3.14159  -0.00000   0.00000  -0.00000   0.00000   3.14159
   D35        3.14159   0.00000   0.00000   0.00000   0.00000   3.14159
   D36       -0.00000   0.00000   0.00000   0.00000   0.00000   0.00000
   D37        0.00000  -0.00000   0.00000  -0.00000   0.00000   0.00000
   D38        3.14159  -0.00000   0.00000  -0.00000   0.00000   3.14159
   D39        3.14159  -0.00000   0.00000  -0.00000   0.00000   3.14159
   D40        0.00000  -0.00000   0.00000  -0.00000   0.00000   0.00000
   D41        3.14159  -0.00000   0.00000  -0.00000   0.00000   3.14159
   D42        0.00000  -0.00000   0.00000  -0.00000   0.00000   0.00000
   D43       -0.00000  -0.00000   0.00000  -0.00000   0.00000   0.00000
[...]
 0004842,-0.00003123,0.,-0.00004775,-0.00003922,0.,0.00000207,0.0000460
 9,0.,0.00000295,-0.00000028,0.,0.00001503,-0.00000121,0.,-0.00002596,-
 0.00003017,0.,-0.00001792,0.00004238,0.,-0.00002537,-0.00012804,0.,-0.
 00062091,-0.00017364,0.,0.00091008,0.00017585,0.,0.35436171,0.,0.00167
 058,-0.00432279,0.,0.02868484,0.00434801,0.,-0.00023120,-0.05834808,0.
 ,-0.02708533,0.00339898,0.,-0.00164575,0.00135310,0.,0.00043123,0.0000
 9667,0.,-0.00016291,0.00019247,0.,-0.00129018,0.00035762,0.,-0.0012941
 2,-0.00445224,0.,-0.00000609,-0.00091441,0.,0.00004681,0.00002443,0.,0
 .00000260,0.00001670,0.,0.00002773,-0.00001094,0.,-0.00002281,-0.00002
 017,0.,0.00001284,0.00000665,0.,-0.00001915,0.00002089,0.,0.00003423,0
 .00000821,0.,-0.00001848,-0.00000173,0.,0.00000891,-0.00004197,0.,-0.0
 0002736,-0.00000612,0.,0.00130242,0.00004962,0.,-0.00052611,0.00122565
 ,0.,-0.00055794,0.05767790,-0.00013706,0.,0.,-0.00008826,0.,0.,-0.0030
 2776,0.,0.,0.00385554,0.,0.,-0.03820580,0.,0.,0.00486711,0.,0.,0.00832
 011,0.,0.,-0.00036661,0.,0.,0.00492881,0.,0.,0.00010537,0.,0.,0.000196
 91,0.,0.,-0.00030100,0.,0.,-0.00010485,0.,0.,-0.00002243,0.,0.,0.00013
 050,0.,0.,-0.00006161,0.,0.,0.00004488,0.,0.,0.00001600,0.,0.,-0.00476
 493,0.,0.,0.00015181,0.,0.,0.00003893,0.,0.,0.00016482,0.,0.,0.0001706
 7,0.,0.,0.02476292,0.,0.00028891,0.00004046,0.,0.00002353,0.00035735,0
 .,0.00080304,-0.00216243,0.,-0.01254408,-0.00199586,0.,-0.33275115,-0.
 00180533,0.,-0.01205847,0.00135226,0.,0.00129363,-0.00248287,0.,0.0005
 7043,-0.00006744,0.,0.00097685,0.00281340,0.,-0.00068290,-0.00067755,0
 .,-0.00079532,0.00025951,0.,0.00016865,-0.00018102,0.,0.00000217,-0.00
 004603,0.,-0.00006348,-0.00007614,0.,-0.00003811,0.00009655,0.,0.00001
 722,0.00005339,0.,0.00024846,-0.00007021,0.,-0.00015860,-0.00050405,0.
 ,0.00028556,0.00096650,0.,-0.00010380,-0.00023618,0.,0.00003827,0.0000
 3411,0.,-0.00001305,0.00005610,0.,0.00054033,0.00080940,0.,0.35390513,
 0.,0.00015308,0.00012624,0.,-0.00039483,0.00018826,0.,0.00160132,0.001
 35238,0.,0.02662153,0.00393241,0.,-0.00322401,-0.05843549,0.,-0.028287
 18,0.00584239,0.,-0.00091186,-0.00403751,0.,-0.00010113,-0.00083360,0.
 ,0.00106091,-0.00449801,0.,0.00127872,0.00042454,0.,-0.00142259,0.0003
 0156,0.,0.00012996,-0.00038443,0.,-0.00006262,0.00000606,0.,-0.0000175
 1,-0.00004550,0.,0.00005209,0.00002711,0.,0.00003422,0.00008658,0.,0.0
 0026149,-0.00011286,0.,-0.00051972,-0.00002136,0.,0.00070433,0.0009115
 7,0.,-0.00014170,0.00007187,0.,-0.00006131,-0.00001796,0.,-0.00001214,
 0.00001074,0.,-0.00084831,-0.00042027,0.,0.00338014,0.05615826,-0.0000
 8826,0.,0.,-0.00013706,0.,0.,0.00010537,0.,0.,0.00492881,0.,0.,-0.0003
 6661,0.,0.,0.00832011,0.,0.,0.00486711,0.,0.,-0.03820580,0.,0.,0.00385
 554,0.,0.,-0.00302776,0.,0.,-0.00476493,0.,0.,0.00001600,0.,0.,0.00004
 488,0.,0.,-0.00006161,0.,0.,0.00013051,0.,0.,-0.00002243,0.,0.,-0.0001
 0485,0.,0.,-0.00030100,0.,0.,0.00019691,0.,0.,0.00015181,0.,0.,0.00016
 482,0.,0.,0.00003893,0.,0.,0.00012722,0.,0.,-0.00119985,0.,0.,0.024762
 92,0.,0.00002353,-0.00035735,0.,0.00028891,-0.00004046,0.,-0.00068290,
 0.00067755,0.,0.00097685,-0.00281340,0.,0.00057043,0.00006744,0.,0.001
 29363,0.00248287,0.,-0.01205847,-0.00135226,0.,-0.33275115,0.00180533,
 0.,-0.01254408,0.00199586,0.,0.00080304,0.00216243,0.,0.00028556,-0.00
 096650,0.,-0.00015860,0.00050405,0.,0.00024846,0.00007021,0.,0.0000172
 2,-0.00005339,0.,-0.00003811,-0.00009655,0.,-0.00006348,0.00007614,0.,
 0.00000217,0.00004603,0.,0.00016865,0.00018102,0.,-0.00079532,-0.00025
 951,0.,-0.00010380,0.00023618,0.,-0.00001305,-0.00005610,0.,0.00003827
 ,-0.00003411,0.,-0.00012340,-0.00019241,0.,-0.00015671,-0.00002589,0.,
 0.35390513,0.,0.00039483,0.00018826,0.,-0.00015308,0.00012624,0.,-0.00
 127872,0.00042454,0.,-0.00106091,-0.00449801,0.,0.00010113,-0.00083360
 ,0.,0.00091186,-0.00403751,0.,0.02828718,0.00584239,0.,0.00322401,-0.0
 5843549,0.,-0.02662153,0.00393241,0.,-0.00160132,0.00135238,0.,-0.0007
 0433,0.00091157,0.,0.00051972,-0.00002136,0.,-0.00026149,-0.00011286,0
 .,-0.00003422,0.00008658,0.,-0.00005209,0.00002711,0.,0.00001751,-0.00
 004550,0.,0.00006262,0.00000606,0.,-0.00012996,-0.00038443,0.,0.001422
 59,0.00030156,0.,0.00014170,0.00007187,0.,0.00001214,0.00001074,0.,0.0
 0006131,-0.00001796,0.,-0.00019929,-0.00034111,0.,0.00002589,0.0000766
 6,0.,-0.00338014,0.05615826,0.00447931,0.,0.,0.00778969,0.,0.,-0.00053
 425,0.,0.,0.00515821,0.,0.,0.00018547,0.,0.,-0.00012128,0.,0.,-0.00009
 894,0.,0.,-0.00319915,0.,0.,0.00373420,0.,0.,-0.03740976,0.,0.,0.00018
 758,0.,0.,-0.00001728,0.,0.,-0.00001403,0.,0.,0.00000073,0.,0.,-0.0000
 1439,0.,0.,-0.00000116,0.,0.,-0.00000930,0.,0.,-0.00000707,0.,0.,0.000
 03909,0.,0.,-0.00000646,0.,0.,-0.00495920,0.,0.,0.00021860,0.,0.,-0.00
 109525,0.,0.,0.00012722,0.,0.,0.00017067,0.,0.,0.02535948,0.,-0.011665
 27,0.00291378,0.,0.00076144,-0.00320916,0.,0.00080292,0.00015964,0.,0.
 00072555,0.00288590,0.,-0.00065891,-0.00061644,0.,0.00029155,-0.000061
 52,0.,0.00005064,0.00037584,0.,0.00072018,-0.00212618,0.,-0.01240538,-
 0.00218359,0.,-0.33361365,0.00015441,0.,-0.00001792,-0.00004238,0.,-0.
 00002596,0.00003017,0.,0.00001503,0.00000121,0.,0.00000295,0.00000028,
 0.,0.00000207,-0.00004609,0.,-0.00004775,0.00003922,0.,0.00004842,0.00
 003123,0.,0.00002649,-0.00001755,0.,0.00002519,-0.00004699,0.,-0.00002
 537,0.00012804,0.,0.00091008,-0.00017585,0.,-0.00062091,0.00017364,0.,
 -0.00011319,0.00000661,0.,-0.00012340,0.00019929,0.,0.00054033,0.00084
 831,0.,0.35436171,0.,-0.02868484,0.00434801,0.,-0.00167058,-0.00432279
 ,0.,0.00000609,-0.00091441,0.,0.00129412,-0.00445224,0.,0.00129018,0.0
 0035762,0.,0.00016291,0.00019247,0.,-0.00043123,0.00009667,0.,0.001645
 75,0.00135310,0.,0.02708533,0.00339898,0.,0.00023120,-0.05834808,0.,-0
 .00000891,-0.00004197,0.,0.00001848,-0.00000173,0.,-0.00003423,0.00000
 821,0.,0.00001915,0.00002089,0.,-0.00001284,0.00000665,0.,0.00002281,-
 0.00002017,0.,-0.00002773,-0.00001094,0.,-0.00000260,0.00001670,0.,-0.
 00004681,0.00002443,0.,0.00002736,-0.00000612,0.,0.00052611,0.00122565
 ,0.,-0.00130242,0.00004962,0.,-0.00000661,0.00010068,0.,0.00019241,-0.
 00034111,0.,-0.00080940,-0.00042027,0.,0.00055794,0.05767790,-0.000040
 62,0.,0.,-0.00000593,0.,0.,0.00002429,0.,0.,-0.00004677,0.,0.,0.000062
 93,0.,0.,0.00027939,0.,0.,-0.00446794,0.,0.,0.00007063,0.,0.,0.0001652
 9,0.,0.,-0.00002978,0.,0.,0.00465289,0.,0.,-0.03890158,0.,0.,0.0034678
 8,0.,0.,0.00545361,0.,0.,-0.00050499,0.,0.,-0.00101412,0.,0.,0.0002248
 4,0.,0.,-0.00063568,0.,0.,0.00008527,0.,0.,0.00882393,0.,0.,0.00001101
 ,0.,0.,0.00000067,0.,0.,0.00000914,0.,0.,0.00003875,0.,0.,0.00022074,0
 .,0.,0.00001955,0.,0.,0.02508661,0.,-0.00004234,-0.00005037,0.,0.00005
 668,-0.00004404,0.,0.00006124,0.00005011,0.,0.00006389,-0.00004397,0.,
 0.00013245,0.00017772,0.,-0.00023020,-0.00009382,0.,0.00135861,0.00075
 780,0.,-0.00070043,-0.00004416,0.,0.00026506,-0.00037614,0.,-0.0000773
 5,0.00004734,0.,-0.01846457,0.01724817,0.,-0.26309475,0.12252098,0.,0.
 00429935,-0.00312204,0.,0.00133451,-0.00073129,0.,0.00004701,-0.000609
 60,0.,0.00019127,0.00006789,0.,-0.00001711,-0.00012301,0.,-0.00034762,
 -0.00039778,0.,-0.00065966,0.00133800,0.,-0.00273884,-0.00426560,0.,-0
 .00000098,-0.00000149,0.,0.00000429,-0.00000030,0.,0.00000769,0.000013
 11,0.,0.00000557,0.00001540,0.,0.00030219,-0.00049754,0.,0.00002053,-0
 .00002249,0.,0.27762288,0.,-0.00001041,-0.00000137,0.,0.00000780,0.000
 01087,0.,0.00000783,-0.00000874,0.,0.00002985,0.00004029,0.,0.00007060
 ,-0.00003871,0.,-0.00003964,0.00016824,0.,0.00064264,-0.00016875,0.,-0
 .00019993,0.00045271,0.,0.00010215,-0.00013667,0.,0.00001075,0.0000171
 9,0.,-0.01217295,0.01339545,0.,0.12084112,-0.13207857,0.,0.02796135,-0
 .01084291,0.,-0.00198440,-0.00488345,0.,-0.00084097,-0.00027237,0.,0.0
 0024700,0.00010662,0.,-0.00006497,-0.00016704,0.,-0.00019628,-0.000004
 84,0.,-0.00034285,0.00063766,0.,-0.00269819,-0.00121139,0.,-0.00000118
 ,0.00000994,0.,0.00000369,0.00000595,0.,0.00000915,0.00000470,0.,0.000
 02262,0.00001768,0.,0.00007590,-0.00036063,0.,0.00000339,-0.00001095,0
 .,-0.13222659,0.13456043,-0.00000108,0.,0.,-0.00000317,0.,0.,0.0000023
 5,0.,0.,-0.00001694,0.,0.,-0.00006488,0.,0.,-0.00019793,0.,0.,0.000448
 81,0.,0.,-0.00000906,0.,0.,-0.00002613,0.,0.,-0.00000584,0.,0.,0.00523
 696,0.,0.,0.00322589,0.,0.,-0.03775740,0.,0.,0.00408053,0.,0.,0.008259
 81,0.,0.,0.00030850,0.,0.,-0.00061175,0.,0.,0.00013476,0.,0.,-0.000497
 28,0.,0.,-0.00052589,0.,0.,0.00000302,0.,0.,0.00000165,0.,0.,0.0000012
 4,0.,0.,0.00004872,0.,0.,0.00003741,0.,0.,0.00000300,0.,0.,-0.00316868
 ,0.,0.,0.02600071,0.,0.00001722,-0.00000143,0.,-0.00001854,-0.00000207
 ,0.,0.00002420,-0.00002644,0.,-0.00003314,0.00002900,0.,0.00001935,-0.
 00004894,0.,-0.00003659,0.00001712,0.,0.00016865,0.00024310,0.,-0.0000
 4804,-0.00005741,0.,0.00003950,0.00002666,0.,-0.00002869,-0.00002399,0
 .,0.00132872,0.00019903,0.,0.00264806,0.00224447,0.,-0.27783228,-0.113
 17977,0.,-0.01913258,-0.01436716,0.,-0.00248501,0.00402424,0.,-0.00030
 787,-0.00108263,0.,-0.00041066,0.00016796,0.,-0.00002614,0.00016795,0.
 ,0.00018039,-0.00004271,0.,0.00045561,0.00071294,0.,0.00000243,-0.0000
 0773,0.,-0.00000254,-0.00000679,0.,-0.00000533,0.00000201,0.,-0.000003
 68,0.00000046,0.,0.00000585,0.00000343,0.,0.00000687,0.00000152,0.,0.0
 0072389,-0.00037989,0.,0.29369050,0.,-0.00000589,-0.00000830,0.,-0.000
 00655,-0.00003064,0.,0.00002539,0.00001053,0.,-0.00001057,-0.00001944,
 0.,-0.00013669,0.00008560,0.,-0.00003708,-0.00049335,0.,-0.00100535,0.
 00051226,0.,-0.00012536,-0.00001077,0.,0.00006778,-0.00000074,0.,-0.00
 004879,-0.00001222,0.,0.00088578,-0.00587084,0.,-0.02884211,-0.0099515
 4,0.,-0.11363737,-0.11684707,0.,0.01719868,0.01130069,0.,0.00310620,-0
 .00180111,0.,0.00022772,0.00069877,0.,0.00027718,0.00006485,0.,0.00008
 781,-0.00018784,0.,-0.00025863,-0.00000503,0.,0.00093756,-0.00037877,0
 .,0.00000068,-0.00001082,0.,-0.00000159,-0.00000590,0.,-0.00000694,0.0
 0000014,0.,-0.00003423,-0.00004625,0.,0.00003444,0.00000193,0.,0.00000
 822,0.00000305,0.,0.00046496,0.00134553,0.,0.12124648,0.12068645,-0.00
 000134,0.,0.,0.00000224,0.,0.,0.00007162,0.,0.,-0.00004693,0.,0.,-0.00
 021974,0.,0.,0.00023778,0.,0.,-0.00092986,0.,0.,0.00007178,0.,0.,-0.00
 000570,0.,0.,-0.00000318,0.,0.,-0.00069494,0.,0.,0.00769566,0.,0.,0.00
 416022,0.,0.,-0.03648482,0.,0.,0.00355391,0.,0.,-0.00287304,0.,0.,-0.0
 0011070,0.,0.,-0.00012939,0.,0.,0.00053326,0.,0.,0.00490589,0.,0.,0.00
 000137,0.,0.,-0.00001385,0.,0.,0.00000113,0.,0.,0.00001873,0.,0.,0.000
 03418,0.,0.,0.00000321,0.,0.,0.00012307,0.,0.,-0.00507298,0.,0.,0.0248
 1118,0.,-0.00004309,-0.00003348,0.,0.00004750,-0.00002747,0.,0.0000160
 5,0.00004817,0.,0.00002100,-0.00010112,0.,0.00013861,0.00003669,0.,-0.
 00044735,-0.00024654,0.,0.00013416,-0.00014757,0.,-0.00001291,0.000101
 11,0.,-0.00003173,-0.00011095,0.,-0.00000485,0.00005896,0.,-0.00091439
 ,0.00012834,0.,-0.00385200,0.00177822,0.,0.00542381,0.02742825,0.,-0.0
 5970165,-0.01959181,0.,0.00328024,-0.02796634,0.,0.00186851,-0.0005721
 4,0.,0.00009358,0.00036750,0.,0.00019479,-0.00018655,0.,0.00057814,-0.
 00109098,0.,-0.00519817,-0.00142024,0.,-0.00000074,0.00000059,0.,0.000
 00199,-0.00000140,0.,0.00000091,0.00000230,0.,0.00000149,0.00000933,0.
 ,0.00001550,-0.00003440,0.,0.00000248,-0.00000323,0.,0.00007396,0.0012
 3257,0.,0.00117667,-0.00045707,0.,0.05742413,0.,-0.00001296,-0.0000251
 7,0.,0.00001974,-0.00002058,0.,0.00002718,0.00001916,0.,-0.00001652,-0
 .00005183,0.,0.00007557,0.00001712,0.,-0.00026799,-0.00017150,0.,0.000
 02576,-0.00005638,0.,-0.00000469,0.00001463,0.,-0.00000149,-0.00003052
 ,0.,-0.00002276,0.00001436,0.,0.00008019,0.00075913,0.,0.00298357,0.00
 052628,0.,-0.00394507,-0.01273590,0.,-0.01805381,-0.33410423,0.,0.0015
 5290,-0.00999436,0.,0.00129081,0.00076478,0.,-0.00030351,-0.00008362,0
 .,-0.00008464,0.00022081,0.,0.00074661,-0.00031956,0.,-0.00296689,0.00
 055609,0.,0.00000174,-0.00000716,0.,-0.00000176,-0.00000784,0.,-0.0000
 0539,0.00000249,0.,-0.00000916,0.00000242,0.,0.00000123,0.00001631,0.,
 0.00000546,0.00000281,0.,-0.00017284,-0.00064870,0.,0.00016984,0.00092
 607,0.,0.01985784,0.35423978,0.00000224,0.,0.,-0.00000134,0.,0.,-0.000
 00318,0.,0.,-0.00000570,0.,0.,0.00007178,0.,0.,-0.00092986,0.,0.,0.000
 23778,0.,0.,-0.00021974,0.,0.,-0.00004693,0.,0.,0.00007162,0.,0.,0.000
 53326,0.,0.,-0.00012939,0.,0.,-0.00011070,0.,0.,-0.00287304,0.,0.,0.00
 355391,0.,0.,-0.03648482,0.,0.,0.00416022,0.,0.,0.00769566,0.,0.,-0.00
 069494,0.,0.,0.00490589,0.,0.,-0.00001385,0.,0.,0.00000137,0.,0.,0.000
 00321,0.,0.,0.00003418,0.,0.,0.00001873,0.,0.,0.00000113,0.,0.,0.00004
 662,0.,0.,0.00015659,0.,0.,0.00015801,0.,0.,0.02481118,0.,0.00004750,0
 .00002747,0.,-0.00004309,0.00003348,0.,-0.00000485,-0.00005896,0.,-0.0
 0003173,0.00011095,0.,-0.00001291,-0.00010111,0.,0.00013416,0.00014757
 ,0.,-0.00044735,0.00024654,0.,0.00013861,-0.00003669,0.,0.00002100,0.0
 0010112,0.,0.00001605,-0.00004817,0.,0.00057814,0.00109098,0.,0.000194
 79,0.00018655,0.,0.00009358,-0.00036750,0.,0.00186851,0.00057214,0.,0.
 00328024,0.02796634,0.,-0.05970165,0.01959181,0.,0.00542381,-0.0274282
 5,0.,-0.00385200,-0.00177822,0.,-0.00091439,-0.00012834,0.,-0.00519817
 ,0.00142024,0.,0.00000199,0.00000140,0.,-0.00000074,-0.00000059,0.,0.0
 0000248,0.00000323,0.,0.00001550,0.00003440,0.,0.00000149,-0.00000933,
 0.,0.00000091,-0.00000230,0.,-0.00003369,-0.00005464,0.,0.00000198,-0.
 00001564,0.,-0.00025494,-0.00087116,0.,0.05742413,0.,-0.00001974,-0.00
 002058,0.,0.00001296,-0.00002517,0.,0.00002276,0.00001436,0.,0.0000014
 9,-0.00003052,0.,0.00000469,0.00001463,0.,-0.00002576,-0.00005638,0.,0
 .00026799,-0.00017150,0.,-0.00007557,0.00001712,0.,0.00001652,-0.00005
 183,0.,-0.00002718,0.00001916,0.,-0.00074661,-0.00031956,0.,0.00008464
 ,0.00022081,0.,0.00030351,-0.00008362,0.,-0.00129081,0.00076478,0.,-0.
 00155290,-0.00999436,0.,0.01805381,-0.33410423,0.,0.00394507,-0.012735
 90,0.,-0.00298357,0.00052628,0.,-0.00008019,0.00075913,0.,0.00296689,0
 .00055609,0.,0.00000176,-0.00000784,0.,-0.00000174,-0.00000716,0.,-0.0
 0000546,0.00000281,0.,-0.00000123,0.00001631,0.,0.00000916,0.00000242,
 0.,0.00000539,0.00000249,0.,0.00004312,0.00001686,0.,0.00005466,-0.000
 01019,0.,0.00087116,0.00016843,0.,-0.01985784,0.35423978,-0.00000317,0
 .,0.,-0.00000108,0.,0.,-0.00000584,0.,0.,-0.00002613,0.,0.,-0.00000906
 ,0.,0.,0.00044881,0.,0.,-0.00019793,0.,0.,-0.00006488,0.,0.,-0.0000169
 4,0.,0.,0.00000235,0.,0.,-0.00049728,0.,0.,0.00013476,0.,0.,-0.0006117
 5,0.,0.,0.00030850,0.,0.,0.00825981,0.,0.,0.00408053,0.,0.,-0.03775740
 ,0.,0.,0.00322589,0.,0.,0.00523696,0.,0.,-0.00052589,0.,0.,0.00000165,
 0.,0.,0.00000302,0.,0.,0.00000300,0.,0.,0.00003741,0.,0.,0.00004872,0.
 ,0.,0.00000124,0.,0.,0.00006457,0.,0.,-0.00005553,0.,0.,0.00015659,0.,
 0.,-0.00507298,0.,0.,0.02600071,0.,-0.00001854,0.00000207,0.,0.0000172
 2,0.00000143,0.,-0.00002869,0.00002399,0.,0.00003950,-0.00002666,0.,-0
 .00004804,0.00005741,0.,0.00016865,-0.00024310,0.,-0.00003659,-0.00001
 712,0.,0.00001935,0.00004894,0.,-0.00003314,-0.00002900,0.,0.00002420,
 0.00002644,0.,0.00018039,0.00004271,0.,-0.00002614,-0.00016795,0.,-0.0
 0041066,-0.00016796,0.,-0.00030787,0.00108263,0.,-0.00248501,-0.004024
 24,0.,-0.01913258,0.01436716,0.,-0.27783228,0.11317977,0.,0.00264806,-
 0.00224447,0.,0.00132872,-0.00019903,0.,0.00045561,-0.00071294,0.,-0.0
 0000254,0.00000679,0.,0.00000243,0.00000773,0.,0.00000687,-0.00000152,
 0.,0.00000585,-0.00000343,0.,-0.00000368,-0.00000046,0.,-0.00000533,-0
 .00000201,0.,-0.00001733,0.00001502,0.,-0.00010146,0.00006892,0.,0.000
 00198,-0.00005466,0.,0.00117667,-0.00016984,0.,0.29369050,0.,0.0000065
 5,-0.00003064,0.,0.00000589,-0.00000830,0.,0.00004879,-0.00001222,0.,-
 0.00006778,-0.00000074,0.,0.00012536,-0.00001077,0.,0.00100535,0.00051
 226,0.,0.00003708,-0.00049335,0.,0.00013669,0.00008560,0.,0.00001057,-
 0.00001944,0.,-0.00002539,0.00001053,0.,0.00025863,-0.00000503,0.,-0.0
 0008781,-0.00018784,0.,-0.00027718,0.00006485,0.,-0.00022772,0.0006987
 7,0.,-0.00310620,-0.00180111,0.,-0.01719868,0.01130069,0.,0.11363737,-
 0.11684707,0.,0.02884211,-0.00995154,0.,-0.00088578,-0.00587084,0.,-0.
 00093756,-0.00037877,0.,0.00000159,-0.00000590,0.,-0.00000068,-0.00001
 082,0.,-0.00000822,0.00000305,0.,-0.00003444,0.00000193,0.,0.00003423,
 -0.00004625,0.,0.00000694,0.00000014,0.,0.00000794,0.00000528,0.,-0.00
 006892,0.00004965,0.,0.00001564,-0.00001019,0.,0.00045707,0.00092607,0
 .,-0.12124648,0.12068645,-0.00000593,0.,0.,-0.00004062,0.,0.,-0.000029
 78,0.,0.,0.00016529,0.,0.,0.00007063,0.,0.,-0.00446794,0.,0.,0.0002793
 9,0.,0.,0.00006293,0.,0.,-0.00004677,0.,0.,0.00002429,0.,0.,0.00008527
 ,0.,0.,-0.00063568,0.,0.,0.00022484,0.,0.,-0.00101412,0.,0.,-0.0005049
 9,0.,0.,0.00545361,0.,0.,0.00346788,0.,0.,-0.03890158,0.,0.,0.00465289
 ,0.,0.,0.00882393,0.,0.,0.00000067,0.,0.,0.00001101,0.,0.,0.00001955,0
 .,0.,0.00022074,0.,0.,0.00003875,0.,0.,0.00000914,0.,0.,-0.00011560,0.
 ,0.,0.00006457,0.,0.,0.00004662,0.,0.,0.00012307,0.,0.,-0.00316868,0.,
 0.,0.02508661,0.,0.00005668,0.00004404,0.,-0.00004234,0.00005037,0.,-0
 .00007735,-0.00004734,0.,0.00026506,0.00037614,0.,-0.00070043,0.000044
 16,0.,0.00135861,-0.00075780,0.,-0.00023020,0.00009382,0.,0.00013245,-
 0.00017772,0.,0.00006389,0.00004397,0.,0.00006124,-0.00005011,0.,-0.00
 065966,-0.00133800,0.,-0.00034762,0.00039778,0.,-0.00001711,0.00012301
 ,0.,0.00019127,-0.00006789,0.,0.00004700,0.00060960,0.,0.00133451,0.00
 073129,0.,0.00429935,0.00312204,0.,-0.26309475,-0.12252098,0.,-0.01846
 457,-0.01724817,0.,-0.00273884,0.00426560,0.,0.00000429,0.00000030,0.,
 -0.00000098,0.00000149,0.,0.00002053,0.00002249,0.,0.00030219,0.000497
 54,0.,0.00000557,-0.00001540,0.,0.00000769,-0.00001311,0.,-0.00014620,
 -0.00007053,0.,-0.00001733,-0.00000794,0.,-0.00003369,-0.00004312,0.,0
 .00007396,0.00017284,0.,0.00072389,-0.00046496,0.,0.27762288,0.,-0.000
 00780,0.00001087,0.,0.00001041,-0.00000137,0.,-0.00001075,0.00001719,0
 .,-0.00010215,-0.00013667,0.,0.00019993,0.00045271,0.,-0.00064264,-0.0
 0016875,0.,0.00003964,0.00016824,0.,-0.00007060,-0.00003871,0.,-0.0000
 2985,0.00004029,0.,-0.00000783,-0.00000874,0.,0.00034285,0.00063766,0.
 ,0.00019628,-0.00000484,0.,0.00006497,-0.00016704,0.,-0.00024700,0.000
 10662,0.,0.00084097,-0.00027237,0.,0.00198440,-0.00488345,0.,-0.027961
 35,-0.01084291,0.,-0.12084112,-0.13207857,0.,0.01217295,0.01339545,0.,
 0.00269819,-0.00121139,0.,-0.00000369,0.00000595,0.,0.00000118,0.00000
 994,0.,-0.00000339,-0.00001095,0.,-0.00007590,-0.00036063,0.,-0.000022
 62,0.00001768,0.,-0.00000915,0.00000470,0.,0.00007053,0.00003971,0.,-0
 .00001502,0.00000528,0.,0.00005464,0.00001686,0.,-0.00123257,-0.000648
 70,0.,0.00037989,0.00134553,0.,0.13222659,0.13456043\\0.,0.00007643,0.
 00001471,0.,-0.00007643,0.00001471,0.,0.00001814,-0.00003879,0.,0.0000
 0770,0.00009857,0.,-0.00002602,-0.00013891,0.,0.00000466,0.00008445,0.
 ,-0.00000466,0.00008445,0.,0.00002602,-0.00013891,0.,-0.00000770,0.000
 09857,0.,-0.00001814,-0.00003879,0.,-0.00007491,-0.00003848,0.,0.00002
 625,-0.00002995,0.,-0.00001601,0.00001903,0.,0.00002097,0.00001233,0.,
 0.,-0.00003235,0.,-0.00002097,0.00001233,0.,0.00001601,0.00001903,0.,-
 0.00002625,-0.00002995,0.,0.00007491,-0.00003848,0.,0.,0.00003554,0.,-
 0.00000842,-0.00000677,0.,0.00000842,-0.00000677,0.,-0.00000187,-0.000
 01227,0.,0.00001211,0.00002550,0.,-0.00001211,0.00002550,0.,0.00000187
 ,-0.00001227,0.,0.00000540,0.00000999,0.,0.00000413,-0.00000327,0.,-0.
 00000880,0.00000228,0.,0.00000880,0.00000228,0.,-0.00000413,-0.0000032
 7,0.,-0.00000540,0.00000999\\\@
 The archive entry for this job was punched.


 EVERY WORD THAT YOU WRITE IS A BLOW THAT SMITES THE DEVIL.
     -- ST. BERNARD OF CLAIRVAUX
 Job cpu time:       0 days  0 hours 33 minutes 32.1 seconds.
 Elapsed time:       0 days  0 hours  2 minutes  9.8 seconds.
 File lengths (MBytes):  RWF=    220 Int=      0 D2E=      0 Chk=      9 Scr=      1
 Normal termination of Gaussian 16 at Thu Jul 31 12:16:42 2025.
