 Entering Gaussian System, Link 0=g16
 Initial command:
 /opt/g16/l1.exe "/tmp/Gau-1119614.inp" -scrdir="/tmp/"
 Entering Link 1 = /opt/g16/l1.exe PID=   1119616.
  
 Copyright (c) 1988-2019, Gaussian, Inc.  All Rights Reserved.
  
 This is part of the Gaussian(R) 16 program.  It is based on
 the Gaussian(R) 09 system (copyright 2009, Gaussian, Inc.),
 the Gaussian(R) 03 system (copyright 2003, Gaussian, Inc.),
 the Gaussian(R) 98 system (copyright 1998, Gaussian, Inc.),
 the Gaussian(R) 94 system (copyright 1995, Gaussian, Inc.),
 the Gaussian 92(TM) system (copyright 1992, Gaussian, Inc.),
 the Gaussian 90(TM) system (copyright 1990, Gaussian, Inc.),
 the Gaussian 88(TM) system (copyright 1988, Gaussian, Inc.),
 the Gaussian 86(TM) system (copyright 1986, Carnegie Mellon
 University), and the Gaussian 82(TM) system (copyright 1983,
 Carnegie Mellon University). Gaussian is a federally registered
 trademark of Gaussian, Inc.
  
 This software contains proprietary and confidential information,
 including trade secrets, belonging to Gaussian, Inc.
  
 This software is provided under written license and may be
 used, copied, transmitted, or stored only in accord with that
 written license.
  
 The following legend is applicable only to US Government
 contracts under FAR:
  
                    RESTRICTED RIGHTS LEGEND
  
 Use, reproduction and disclosure by the US Government is
 subject to restrictions as set forth in subparagraphs (a)
 and (c) of the Commercial Computer Software - Restricted
 Rights clause in FAR 52.227-19.
  
 Gaussian, Inc.
 340 Quinnipiac St., Bldg. 40, Wallingford CT 06492
  
  
 ---------------------------------------------------------------
 Warning -- This program may not be used in any manner that
 competes with the business of Gaussian, Inc. or will provide
 assistance to any competitor of Gaussian, Inc.  The licensee
 of this program is prohibited from giving any competitor of
 Gaussian, Inc. access to this program.  By using this program,
 the user acknowledges that Gaussian, Inc. is engaged in the
 business of creating and licensing software in the field of
 computational chemistry and represents and warrants to the
 licensee that it is not a competitor of Gaussian, Inc. and that
 it will not use this program in any manner prohibited above.
 ---------------------------------------------------------------
  

 Cite this work as:
 Gaussian 16, Revision C.01,
 M. J. Frisch, G. W. Trucks, H. B. Schlegel, G. E. Scuseria, 
 M. A. Robb, J. R. Cheeseman, G. Scalmani, V. Barone, 
 G. A. Petersson, H. Nakatsuji, X. Li, M. Caricato, A. V. Marenich, 
 J. Bloino, B. G. Janesko, R. Gomperts, B. Mennucci, H. P. Hratchian, 
 J. V. Ortiz, A. F. Izmaylov, J. L. Sonnenberg, D. Williams-Young, 
 F. Ding, F. Lipparini, F. Egidi, J. Goings, B. Peng, A. Petrone, 
 T. Henderson, D. Ranasinghe, V. G. Zakrzewski, J. Gao, N. Rega, 
 G. Zheng, W. Liang, M. Hada, M. Ehara, K. Toyota, R. Fukuda, 
 J. Hasegawa, M. Ishida, T. Nakajima, Y. Honda, O. Kitao, H. Nakai, 
 T. Vreven, K. Throssell, J. A. Montgomery, Jr., J. E. Peralta, 
 F. Ogliaro, M. J. Bearpark, J. J. Heyd, E. N. Brothers, K. N. Kudin, 
 V. N. Staroverov, T. A. Keith, R. Kobayashi, J. Normand, 
 K. Raghavachari, A. P. Rendell, J. C. Burant, S. S. Iyengar, 
 J. Tomasi, M. Cossi, J. M. Millam, M. Klene, C. Adamo, R. Cammi, 
 J. W. Ochterski, R. L. Martin, K. Morokuma, O. Farkas, 
 J. B. Foresman, and D. J. Fox, Gaussian, Inc., Wallingford CT, 2019.
 
 ******************************************
 Gaussian 16:  ES64L-G16RevC.01  3-Jul-2019
                 8-Oct-2024 
 ******************************************
 %nprocshared=8
 Will use up to    8 processors via shared memory.
 %mem=10400MB
 ----------------------------------------------------------------------
 #N opt freq B3LYP/def2SVPP symm=veryloose em=gd3bj scale=0.961 press=0
 .987
 ----------------------------------------------------------------------
 1/18=20,19=15,26=3,38=1,113=-987000,114=961000/1,3;
 2/9=110,12=2,17=2,18=2,40=1/2;
 3/5=43,7=202,11=2,25=1,30=1,71=1,74=-5,124=41/1,2,3;
 4//1;
 5/5=2,38=5/2;
 6/7=2,8=2,9=2,10=2,28=1/1;
 7//1,2,3,16;
 1/18=20,19=15,26=3/3(2);
 2/9=110/2;
 99//99;
 2/9=110/2;
 3/5=43,7=202,11=2,25=1,30=1,71=1,74=-5,124=41/1,2,3;
 4/5=5,16=3,69=1/1;
 5/5=2,38=5/2;
 7//1,2,3,16;
 1/18=20,19=15,26=3/3(-5);
 2/9=110/2;
 6/7=2,8=2,9=2,10=2,19=2,28=1/1;
 99/9=1/99;
 --------------------------------------------
 c1ccc2cc3c(ccc4cc5c(ccc6ccccc65)cc43)cc2c1_2
 --------------------------------------------
 Symbolic Z-matrix:
 Charge =  0 Multiplicity = 1
 C                    -6.8454    0.6492    0.189 
 C                    -6.2318    1.8785    0.4062 
 C                    -4.839     1.9661    0.4315 
 C                    -4.0413    0.8247    0.2399 
 C                    -2.635     0.893     0.262 
 C                    -1.8028   -0.2409    0.072 
 C                    -2.4585   -1.4766   -0.1466 
 C                    -1.7073   -2.6376   -0.342 
 C                    -0.3164   -2.5979   -0.3249 
 C                     0.3659   -1.3966   -0.1121 
 C                     1.7751   -1.3888   -0.1004 
 C                     2.544    -0.2192    0.1075 
 C                     1.8192    0.974     0.3087 
 C                     2.5023    2.1756    0.5216 
 C                     3.8935    2.2157    0.5387 
 C                     4.6439    1.0545    0.3433 
 C                     6.0474    1.1264    0.3659 
 C                     6.8283   -0.01      0.1751 
 C                     6.2128   -1.233    -0.041 
 C                     4.8172   -1.3168   -0.0657 
 C                     3.9862   -0.183     0.1244 
 C                     0.4099    0.9659    0.297 
 C                    -0.3597   -0.2038    0.089 
 C                    -3.8623   -1.5508   -0.1697 
 C                    -4.663    -0.4168    0.0206 
 C                    -6.0662   -0.4924   -0.0028 
 H                    -7.9296    0.577     0.1685 
 H                    -6.8352    2.7699    0.5559 
 H                    -4.378     2.9363    0.6028 
 H                    -2.1873    1.8679    0.434 
 H                    -2.1984   -3.5937   -0.511 
 H                     0.231    -3.5253   -0.4814 
 H                     2.2819   -2.3371   -0.2608 
 H                     1.9551    3.103     0.678 
 H                     4.3856    3.1712    0.7076 
 H                     6.547     2.0784    0.5343 
 H                     7.9121    0.0624    0.1955 
 H                     6.8127   -2.1268   -0.1913 
 H                     4.3879   -2.2992   -0.2388 
 H                    -0.0954    1.9148    0.4574 
 H                    -4.3435   -2.5128   -0.3397 
 H                    -6.5628   -1.4453   -0.1713 
 

 GradGradGradGradGradGradGradGradGradGradGradGradGradGradGradGradGradGrad
 Berny optimization.
 Initialization pass.
                           ----------------------------
                           !    Initial Parameters    !
                           ! (Angstroms and Degrees)  !
 --------------------------                            --------------------------
 ! Name  Definition              Value          Derivative Info.                !
 --------------------------------------------------------------------------------
 ! R1    R(1,2)                  1.391          estimate D2E/DX2                !
 ! R2    R(1,26)                 1.3954         estimate D2E/DX2                !
 ! R3    R(1,27)                 1.0868         estimate D2E/DX2                !
 ! R4    R(2,3)                  1.3958         estimate D2E/DX2                !
 ! R5    R(2,28)                 1.0868         estimate D2E/DX2                !
 ! R6    R(3,4)                  1.4056         estimate D2E/DX2                !
 ! R7    R(3,29)                 1.0877         estimate D2E/DX2                !
 ! R8    R(4,5)                  1.4081         estimate D2E/DX2                !
 ! R9    R(4,25)                 1.4057         estimate D2E/DX2                !
 ! R10   R(5,6)                  1.4193         estimate D2E/DX2                !
 ! R11   R(5,30)                 1.0865         estimate D2E/DX2                !
 ! R12   R(6,7)                  1.4159         estimate D2E/DX2                !
 ! R13   R(6,23)                 1.4437         estimate D2E/DX2                !
 ! R14   R(7,8)                  1.3966         estimate D2E/DX2                !
 ! R15   R(7,24)                 1.4059         estimate D2E/DX2                !
 ! R16   R(8,9)                  1.3916         estimate D2E/DX2                !
 ! R17   R(8,31)                 1.0881         estimate D2E/DX2                !
 ! R18   R(9,10)                 1.3978         estimate D2E/DX2                !
 ! R19   R(9,32)                 1.0882         estimate D2E/DX2                !
 ! R20   R(10,11)                1.4093         estimate D2E/DX2                !
 ! R21   R(10,23)                1.4106         estimate D2E/DX2                !
 ! R22   R(11,12)                1.4151         estimate D2E/DX2                !
 ! R23   R(11,33)                1.0871         estimate D2E/DX2                !
 ! R24   R(12,13)                1.4105         estimate D2E/DX2                !
 ! R25   R(12,21)                1.4428         estimate D2E/DX2                !
 ! R26   R(13,14)                1.3985         estimate D2E/DX2                !
 ! R27   R(13,22)                1.4094         estimate D2E/DX2                !
 ! R28   R(14,15)                1.3919         estimate D2E/DX2                !
 ! R29   R(14,34)                1.0881         estimate D2E/DX2                !
 ! R30   R(15,16)                1.3963         estimate D2E/DX2                !
 ! R31   R(15,35)                1.088          estimate D2E/DX2                !
 ! R32   R(16,17)                1.4055         estimate D2E/DX2                !
 ! R33   R(16,21)                1.4184         estimate D2E/DX2                !
 ! R34   R(17,18)                1.392          estimate D2E/DX2                !
 ! R35   R(17,36)                1.0882         estimate D2E/DX2                !
 ! R36   R(18,19)                1.3861         estimate D2E/DX2                !
 ! R37   R(18,37)                1.0864         estimate D2E/DX2                !
 ! R38   R(19,20)                1.3983         estimate D2E/DX2                !
 ! R39   R(19,38)                1.0869         estimate D2E/DX2                !
 ! R40   R(20,21)                1.4185         estimate D2E/DX2                !
 ! R41   R(20,39)                1.086          estimate D2E/DX2                !
 ! R42   R(22,23)                1.4155         estimate D2E/DX2                !
 ! R43   R(22,40)                1.087          estimate D2E/DX2                !
 ! R44   R(24,25)                1.4012         estimate D2E/DX2                !
 ! R45   R(24,41)                1.089          estimate D2E/DX2                !
 ! R46   R(25,26)                1.4054         estimate D2E/DX2                !
 ! R47   R(26,42)                1.0877         estimate D2E/DX2                !
 ! A1    A(2,1,26)             119.8775         estimate D2E/DX2                !
 ! A2    A(2,1,27)             120.1144         estimate D2E/DX2                !
 ! A3    A(26,1,27)            120.0082         estimate D2E/DX2                !
 ! A4    A(1,2,3)              119.8993         estimate D2E/DX2                !
 ! A5    A(1,2,28)             120.0969         estimate D2E/DX2                !
 ! A6    A(3,2,28)             120.0038         estimate D2E/DX2                !
 ! A7    A(2,3,4)              120.8541         estimate D2E/DX2                !
 ! A8    A(2,3,29)             118.7996         estimate D2E/DX2                !
 ! A9    A(4,3,29)             120.3463         estimate D2E/DX2                !
 ! A10   A(3,4,5)              121.6841         estimate D2E/DX2                !
 ! A11   A(3,4,25)             119.1729         estimate D2E/DX2                !
 ! A12   A(5,4,25)             119.143          estimate D2E/DX2                !
 ! A13   A(4,5,6)              123.0066         estimate D2E/DX2                !
 ! A14   A(4,5,30)             117.2281         estimate D2E/DX2                !
 ! A15   A(6,5,30)             119.7653         estimate D2E/DX2                !
 ! A16   A(5,6,7)              116.5119         estimate D2E/DX2                !
 ! A17   A(5,6,23)             124.3334         estimate D2E/DX2                !
 ! A18   A(7,6,23)             119.1547         estimate D2E/DX2                !
 ! A19   A(6,7,8)              119.8703         estimate D2E/DX2                !
 ! A20   A(6,7,24)             120.7303         estimate D2E/DX2                !
 ! A21   A(8,7,24)             119.3994         estimate D2E/DX2                !
 ! A22   A(7,8,9)              120.8101         estimate D2E/DX2                !
 ! A23   A(7,8,31)             120.6275         estimate D2E/DX2                !
 ! A24   A(9,8,31)             118.5624         estimate D2E/DX2                !
 ! A25   A(8,9,10)             120.9484         estimate D2E/DX2                !
 ! A26   A(8,9,32)             118.4703         estimate D2E/DX2                !
 ! A27   A(10,9,32)            120.5813         estimate D2E/DX2                !
 ! A28   A(9,10,11)            119.611          estimate D2E/DX2                !
 ! A29   A(9,10,23)            119.8242         estimate D2E/DX2                !
 ! A30   A(11,10,23)           120.5648         estimate D2E/DX2                !
 ! A31   A(10,11,12)           123.3078         estimate D2E/DX2                !
 ! A32   A(10,11,33)           117.394          estimate D2E/DX2                !
 ! A33   A(12,11,33)           119.2982         estimate D2E/DX2                !
 ! A34   A(11,12,13)           116.1639         estimate D2E/DX2                !
 ! A35   A(11,12,21)           124.4454         estimate D2E/DX2                !
 ! A36   A(13,12,21)           119.3907         estimate D2E/DX2                !
 ! A37   A(12,13,14)           119.8383         estimate D2E/DX2                !
 ! A38   A(12,13,22)           120.5163         estimate D2E/DX2                !
 ! A39   A(14,13,22)           119.6453         estimate D2E/DX2                !
 ! A40   A(13,14,15)           120.9866         estimate D2E/DX2                !
 ! A41   A(13,14,34)           120.5676         estimate D2E/DX2                !
 ! A42   A(15,14,34)           118.4458         estimate D2E/DX2                !
 ! A43   A(14,15,16)           120.7622         estimate D2E/DX2                !
 ! A44   A(14,15,35)           118.6397         estimate D2E/DX2                !
 ! A45   A(16,15,35)           120.5981         estimate D2E/DX2                !
 ! A46   A(15,16,17)           119.4625         estimate D2E/DX2                !
 ! A47   A(15,16,21)           119.8649         estimate D2E/DX2                !
 ! A48   A(17,16,21)           120.6727         estimate D2E/DX2                !
 ! A49   A(16,17,18)           121.0794         estimate D2E/DX2                !
 ! A50   A(16,17,36)           120.3758         estimate D2E/DX2                !
 ! A51   A(18,17,36)           118.5448         estimate D2E/DX2                !
 ! A52   A(17,18,19)           119.5106         estimate D2E/DX2                !
 ! A53   A(17,18,37)           120.177          estimate D2E/DX2                !
 ! A54   A(19,18,37)           120.3124         estimate D2E/DX2                !
 ! A55   A(18,19,20)           119.9217         estimate D2E/DX2                !
 ! A56   A(18,19,38)           120.1356         estimate D2E/DX2                !
 ! A57   A(20,19,38)           119.9428         estimate D2E/DX2                !
 ! A58   A(19,20,21)           122.3039         estimate D2E/DX2                !
 ! A59   A(19,20,39)           116.844          estimate D2E/DX2                !
 ! A60   A(21,20,39)           120.8521         estimate D2E/DX2                !
 ! A61   A(12,21,16)           119.1572         estimate D2E/DX2                !
 ! A62   A(12,21,20)           124.331          estimate D2E/DX2                !
 ! A63   A(16,21,20)           116.5118         estimate D2E/DX2                !
 ! A64   A(13,22,23)           123.3411         estimate D2E/DX2                !
 ! A65   A(13,22,40)           117.2975         estimate D2E/DX2                !
 ! A66   A(23,22,40)           119.3614         estimate D2E/DX2                !
 ! A67   A(6,23,10)            119.3923         estimate D2E/DX2                !
 ! A68   A(6,23,22)            124.5016         estimate D2E/DX2                !
 ! A69   A(10,23,22)           116.1061         estimate D2E/DX2                !
 ! A70   A(7,24,25)            121.7108         estimate D2E/DX2                !
 ! A71   A(7,24,41)            119.3661         estimate D2E/DX2                !
 ! A72   A(25,24,41)           118.9231         estimate D2E/DX2                !
 ! A73   A(4,25,24)            118.8976         estimate D2E/DX2                !
 ! A74   A(4,25,26)            119.4512         estimate D2E/DX2                !
 ! A75   A(24,25,26)           121.6512         estimate D2E/DX2                !
 ! A76   A(1,26,25)            120.745          estimate D2E/DX2                !
 ! A77   A(1,26,42)            118.8869         estimate D2E/DX2                !
 ! A78   A(25,26,42)           120.3682         estimate D2E/DX2                !
 ! D1    D(26,1,2,3)             0.0039         estimate D2E/DX2                !
 ! D2    D(26,1,2,28)          179.9939         estimate D2E/DX2                !
 ! D3    D(27,1,2,3)          -179.9933         estimate D2E/DX2                !
 ! D4    D(27,1,2,28)           -0.0032         estimate D2E/DX2                !
 ! D5    D(2,1,26,25)            0.0008         estimate D2E/DX2                !
 ! D6    D(2,1,26,42)          179.9989         estimate D2E/DX2                !
 ! D7    D(27,1,26,25)         179.9979         estimate D2E/DX2                !
 ! D8    D(27,1,26,42)          -0.0039         estimate D2E/DX2                !
 ! D9    D(1,2,3,4)             -0.0053         estimate D2E/DX2                !
 ! D10   D(1,2,3,29)          -179.9971         estimate D2E/DX2                !
 ! D11   D(28,2,3,4)          -179.9954         estimate D2E/DX2                !
 ! D12   D(28,2,3,29)            0.0128         estimate D2E/DX2                !
 ! D13   D(2,3,4,5)           -179.9981         estimate D2E/DX2                !
 ! D14   D(2,3,4,25)             0.002          estimate D2E/DX2                !
 ! D15   D(29,3,4,5)            -0.0064         estimate D2E/DX2                !
 ! D16   D(29,3,4,25)          179.9937         estimate D2E/DX2                !
 ! D17   D(3,4,5,6)            179.9976         estimate D2E/DX2                !
 ! D18   D(3,4,5,30)             0.0053         estimate D2E/DX2                !
 ! D19   D(25,4,5,6)            -0.0026         estimate D2E/DX2                !
 ! D20   D(25,4,5,30)         -179.9948         estimate D2E/DX2                !
 ! D21   D(3,4,25,24)          179.9999         estimate D2E/DX2                !
 ! D22   D(3,4,25,26)            0.0026         estimate D2E/DX2                !
 ! D23   D(5,4,25,24)            0.0001         estimate D2E/DX2                !
 ! D24   D(5,4,25,26)         -179.9972         estimate D2E/DX2                !
 ! D25   D(4,5,6,7)              0.0049         estimate D2E/DX2                !
 ! D26   D(4,5,6,23)          -179.9988         estimate D2E/DX2                !
 ! D27   D(30,5,6,7)           179.997          estimate D2E/DX2                !
 ! D28   D(30,5,6,23)           -0.0067         estimate D2E/DX2                !
 ! D29   D(5,6,7,8)            179.9947         estimate D2E/DX2                !
 ! D30   D(5,6,7,24)            -0.0049         estimate D2E/DX2                !
 ! D31   D(23,6,7,8)            -0.0019         estimate D2E/DX2                !
 ! D32   D(23,6,7,24)          179.9986         estimate D2E/DX2                !
 ! D33   D(5,6,23,10)         -179.994          estimate D2E/DX2                !
 ! D34   D(5,6,23,22)            0.0029         estimate D2E/DX2                !
 ! D35   D(7,6,23,10)            0.0023         estimate D2E/DX2                !
 ! D36   D(7,6,23,22)          179.9992         estimate D2E/DX2                !
 ! D37   D(6,7,8,9)              0.0034         estimate D2E/DX2                !
 ! D38   D(6,7,8,31)           179.9988         estimate D2E/DX2                !
 ! D39   D(24,7,8,9)          -179.997          estimate D2E/DX2                !
 ! D40   D(24,7,8,31)           -0.0016         estimate D2E/DX2                !
 ! D41   D(6,7,24,25)            0.0027         estimate D2E/DX2                !
 ! D42   D(6,7,24,41)          179.9981         estimate D2E/DX2                !
 ! D43   D(8,7,24,25)         -179.9969         estimate D2E/DX2                !
 ! D44   D(8,7,24,41)           -0.0015         estimate D2E/DX2                !
 ! D45   D(7,8,9,10)            -0.0055         estimate D2E/DX2                !
 ! D46   D(7,8,9,32)          -179.9983         estimate D2E/DX2                !
 ! D47   D(31,8,9,10)          179.999          estimate D2E/DX2                !
 ! D48   D(31,8,9,32)            0.0062         estimate D2E/DX2                !
 ! D49   D(8,9,10,11)         -179.9992         estimate D2E/DX2                !
 ! D50   D(8,9,10,23)            0.0059         estimate D2E/DX2                !
 ! D51   D(32,9,10,11)          -0.0066         estimate D2E/DX2                !
 ! D52   D(32,9,10,23)         179.9986         estimate D2E/DX2                !
 ! D53   D(9,10,11,12)         179.9975         estimate D2E/DX2                !
 ! D54   D(9,10,11,33)           0.0056         estimate D2E/DX2                !
 ! D55   D(23,10,11,12)         -0.0077         estimate D2E/DX2                !
 ! D56   D(23,10,11,33)       -179.9996         estimate D2E/DX2                !
 ! D57   D(9,10,23,6)           -0.0043         estimate D2E/DX2                !
 ! D58   D(9,10,23,22)         179.9985         estimate D2E/DX2                !
 ! D59   D(11,10,23,6)        -179.9991         estimate D2E/DX2                !
 ! D60   D(11,10,23,22)          0.0037         estimate D2E/DX2                !
 ! D61   D(10,11,12,13)          0.0085         estimate D2E/DX2                !
 ! D62   D(10,11,12,21)        179.9978         estimate D2E/DX2                !
 ! D63   D(33,11,12,13)       -179.9997         estimate D2E/DX2                !
 ! D64   D(33,11,12,21)         -0.0105         estimate D2E/DX2                !
 ! D65   D(11,12,13,14)        179.9961         estimate D2E/DX2                !
 ! D66   D(11,12,13,22)         -0.0058         estimate D2E/DX2                !
 ! D67   D(21,12,13,14)          0.0063         estimate D2E/DX2                !
 ! D68   D(21,12,13,22)       -179.9957         estimate D2E/DX2                !
 ! D69   D(11,12,21,16)       -179.9963         estimate D2E/DX2                !
 ! D70   D(11,12,21,20)          0.0094         estimate D2E/DX2                !
 ! D71   D(13,12,21,16)         -0.0074         estimate D2E/DX2                !
 ! D72   D(13,12,21,20)        179.9983         estimate D2E/DX2                !
 ! D73   D(12,13,14,15)         -0.0017         estimate D2E/DX2                !
 ! D74   D(12,13,14,34)        179.9941         estimate D2E/DX2                !
 ! D75   D(22,13,14,15)       -179.9998         estimate D2E/DX2                !
 ! D76   D(22,13,14,34)         -0.004          estimate D2E/DX2                !
 ! D77   D(12,13,22,23)          0.0025         estimate D2E/DX2                !
 ! D78   D(12,13,22,40)       -179.9927         estimate D2E/DX2                !
 ! D79   D(14,13,22,23)       -179.9994         estimate D2E/DX2                !
 ! D80   D(14,13,22,40)          0.0054         estimate D2E/DX2                !
 ! D81   D(13,14,15,16)         -0.0018         estimate D2E/DX2                !
 ! D82   D(13,14,15,35)        179.9987         estimate D2E/DX2                !
 ! D83   D(34,14,15,16)       -179.9977         estimate D2E/DX2                !
 ! D84   D(34,14,15,35)          0.0028         estimate D2E/DX2                !
 ! D85   D(14,15,16,17)        179.9958         estimate D2E/DX2                !
 ! D86   D(14,15,16,21)          0.0006         estimate D2E/DX2                !
 ! D87   D(35,15,16,17)         -0.0047         estimate D2E/DX2                !
 ! D88   D(35,15,16,21)       -179.9999         estimate D2E/DX2                !
 ! D89   D(15,16,17,18)        179.9957         estimate D2E/DX2                !
 ! D90   D(15,16,17,36)          0.0078         estimate D2E/DX2                !
 ! D91   D(21,16,17,18)         -0.0091         estimate D2E/DX2                !
 ! D92   D(21,16,17,36)       -179.9971         estimate D2E/DX2                !
 ! D93   D(15,16,21,12)          0.0039         estimate D2E/DX2                !
 ! D94   D(15,16,21,20)        179.9987         estimate D2E/DX2                !
 ! D95   D(17,16,21,12)       -179.9912         estimate D2E/DX2                !
 ! D96   D(17,16,21,20)          0.0036         estimate D2E/DX2                !
 ! D97   D(16,17,18,19)          0.0098         estimate D2E/DX2                !
 ! D98   D(16,17,18,37)       -179.9982         estimate D2E/DX2                !
 ! D99   D(36,17,18,19)        179.998          estimate D2E/DX2                !
 ! D100  D(36,17,18,37)         -0.01           estimate D2E/DX2                !
 ! D101  D(17,18,19,20)         -0.0051         estimate D2E/DX2                !
 ! D102  D(17,18,19,38)        179.9924         estimate D2E/DX2                !
 ! D103  D(37,18,19,20)       -179.9971         estimate D2E/DX2                !
 ! D104  D(37,18,19,38)          0.0004         estimate D2E/DX2                !
 ! D105  D(18,19,20,21)         -0.0003         estimate D2E/DX2                !
 ! D106  D(18,19,20,39)       -179.9994         estimate D2E/DX2                !
 ! D107  D(38,19,20,21)       -179.9978         estimate D2E/DX2                !
 ! D108  D(38,19,20,39)          0.0031         estimate D2E/DX2                !
 ! D109  D(19,20,21,12)        179.9955         estimate D2E/DX2                !
 ! D110  D(19,20,21,16)          0.0011         estimate D2E/DX2                !
 ! D111  D(39,20,21,12)         -0.0055         estimate D2E/DX2                !
 ! D112  D(39,20,21,16)       -179.9999         estimate D2E/DX2                !
 ! D113  D(13,22,23,6)        -179.9983         estimate D2E/DX2                !
 ! D114  D(13,22,23,10)         -0.0013         estimate D2E/DX2                !
 ! D115  D(40,22,23,6)          -0.0032         estimate D2E/DX2                !
 ! D116  D(40,22,23,10)        179.9938         estimate D2E/DX2                !
 ! D117  D(7,24,25,4)           -0.0002         estimate D2E/DX2                !
 ! D118  D(7,24,25,26)         179.9971         estimate D2E/DX2                !
 ! D119  D(41,24,25,4)        -179.9956         estimate D2E/DX2                !
 ! D120  D(41,24,25,26)          0.0017         estimate D2E/DX2                !
 ! D121  D(4,25,26,1)           -0.004          estimate D2E/DX2                !
 ! D122  D(4,25,26,42)         179.9978         estimate D2E/DX2                !
 ! D123  D(24,25,26,1)         179.9987         estimate D2E/DX2                !
 ! D124  D(24,25,26,42)          0.0006         estimate D2E/DX2                !
 --------------------------------------------------------------------------------
 Trust Radius=3.00D-01 FncErr=1.00D-07 GrdErr=1.00D-06 EigMax=2.50D+02 EigMin=1.00D-04
 Number of steps in this run=    252 maximum allowed number of steps=    252.
 GradGradGradGradGradGradGradGradGradGradGradGradGradGradGradGradGradGrad

                          Input orientation:                          
 ---------------------------------------------------------------------
 Center     Atomic      Atomic             Coordinates (Angstroms)
 Number     Number       Type             X           Y           Z
 ---------------------------------------------------------------------
      1          6           0       -6.845400    0.649200    0.189000
      2          6           0       -6.231800    1.878500    0.406200
      3          6           0       -4.839000    1.966100    0.431500
      4          6           0       -4.041300    0.824700    0.239900
      5          6           0       -2.635000    0.893000    0.262000
      6          6           0       -1.802800   -0.240900    0.072000
      7          6           0       -2.458500   -1.476600   -0.146600
      8          6           0       -1.707300   -2.637600   -0.342000
      9          6           0       -0.316400   -2.597900   -0.324900
     10          6           0        0.365900   -1.396600   -0.112100
     11          6           0        1.775100   -1.388800   -0.100400
     12          6           0        2.544000   -0.219200    0.107500
     13          6           0        1.819200    0.974000    0.308700
     14          6           0        2.502300    2.175600    0.521600
     15          6           0        3.893500    2.215700    0.538700
     16          6           0        4.643900    1.054500    0.343300
     17          6           0        6.047400    1.126400    0.365900
     18          6           0        6.828300   -0.010000    0.175100
     19          6           0        6.212800   -1.233000   -0.041000
     20          6           0        4.817200   -1.316800   -0.065700
     21          6           0        3.986200   -0.183000    0.124400
     22          6           0        0.409900    0.965900    0.297000
     23          6           0       -0.359700   -0.203800    0.089000
     24          6           0       -3.862300   -1.550800   -0.169700
     25          6           0       -4.663000   -0.416800    0.020600
     26          6           0       -6.066200   -0.492400   -0.002800
     27          1           0       -7.929600    0.577000    0.168500
     28          1           0       -6.835200    2.769900    0.555900
     29          1           0       -4.378000    2.936300    0.602800
     30          1           0       -2.187300    1.867900    0.434000
     31          1           0       -2.198400   -3.593700   -0.511000
     32          1           0        0.231000   -3.525300   -0.481400
     33          1           0        2.281900   -2.337100   -0.260800
     34          1           0        1.955100    3.103000    0.678000
     35          1           0        4.385600    3.171200    0.707600
     36          1           0        6.547000    2.078400    0.534300
     37          1           0        7.912100    0.062400    0.195500
     38          1           0        6.812700   -2.126800   -0.191300
     39          1           0        4.387900   -2.299200   -0.238800
     40          1           0       -0.095400    1.914800    0.457400
     41          1           0       -4.343500   -2.512800   -0.339700
     42          1           0       -6.562800   -1.445300   -0.171300
 ---------------------------------------------------------------------
                    Distance matrix (angstroms):
                    1          2          3          4          5
     1  C    0.000000
     2  C    1.390992   0.000000
     3  C    2.412193   1.395781   0.000000
     4  C    2.810048   2.436481   1.405642   0.000000
     5  C    4.218084   3.732154   2.457212   1.408131   0.000000
     6  C    5.121892   4.921340   3.770756   2.484869   1.419291
     7  C    4.886363   5.079378   4.225300   2.819684   2.411039
     8  C    6.122507   6.436308   5.621379   4.215885   3.700078
     9  C    7.309965   7.454168   6.469633   5.089997   4.231636
    10  C    7.501920   7.384075   6.220469   4.947877   3.793102
    11  C    8.862856   8.662698   7.435361   6.232648   4.978647
    12  C    9.429825   9.027969   7.706439   6.668840   5.299330
    13  C    8.671512   8.102236   6.732828   5.862805   4.455181
    14  C    9.477342   8.739914   7.344841   6.687525   5.301349
    15  C   10.858185  10.131780   8.736724   8.061341   6.666889
    16  C   11.497482  10.907052   9.527024   8.688855   7.281145
    17  C   12.902841  12.302277  10.918933  10.093997   8.686158
    18  C   13.689588  13.197956  11.836241  10.901795   9.506682
    19  C   13.195157  12.835478  11.515198  10.462294   9.104683
    20  C   11.829889  11.511431  10.211113   9.118796   7.779839
    21  C   10.863714  10.427690   9.088294   8.091326   6.709471
    22  C    7.263012   6.704994   5.345039   4.453805   3.045974
    23  C    6.542317   6.238441   4.988978   3.825541   2.531776
    24  C    3.723916   4.207884   3.699185   2.417191   2.768535
    25  C    2.434663   2.806817   2.424464   1.405676   2.426239
    26  C    1.395418   2.411612   2.781880   2.427731   3.709796
    27  H    1.086795   2.152424   3.398614   3.896836   5.304846
    28  H    2.152229   1.086782   2.155547   3.418996   4.609860
    29  H    3.389708   2.143401   1.087728   2.168852   2.707262
    30  H    4.821115   4.044609   2.653519   2.136178   1.086485
    31  H    6.331414   6.859631   6.226753   4.845863   4.573688
    32  H    8.243259   8.470931   7.529526   6.139652   5.318644
    33  H    9.613944   9.523616   8.348894   7.087351   5.906164
    34  H    9.149265   8.282428   6.892975   6.429572   5.111377
    35  H   11.522360  10.700051   9.307080   8.759991   7.394429
    36  H   13.472870  12.781005  11.387018  10.666327   9.262205
    37  H   14.769163  14.261575  12.894585  11.977765  10.579964
    38  H   13.942543  13.658639  12.365348  11.256403   9.928933
    39  H   11.621665  11.430102  10.187137   9.002184   7.730593
    40  H    6.872866   6.136721   4.743948   4.099482   2.744417
    41  H    4.066604   4.837929   4.571741   3.400907   3.857524
    42  H    2.143970   3.389796   3.869432   3.417594   4.591624
                    6          7          8          9         10
     6  C    0.000000
     7  C    1.415868   0.000000
     8  C    2.434068   1.396569   0.000000
     9  C    2.814669   2.424396   1.391572   0.000000
    10  C    2.464304   2.825743   2.427157   1.397834   0.000000
    11  C    3.761484   4.234762   3.707423   2.426251   1.409270
    12  C    4.346999   5.164361   4.911645   3.745273   2.485682
    13  C    3.827648   4.950905   5.089525   4.209597   2.812276
    14  C    4.957368   6.196337   6.452397   5.607846   4.210272
    15  C    6.220975   7.379066   7.463184   6.452891   5.090797
    16  C    6.581155   7.555829   7.378278   6.196055   4.951420
    17  C    7.973803   8.910028   8.648942   7.405779   6.234858
    18  C    8.634804   9.407394   8.945845   7.615377   6.615720
    19  C    8.077554   8.675364   8.049316   6.676377   5.849620
    20  C    6.708273   7.277904   6.662579   5.297382   4.452257
    21  C    5.789527   6.578830   6.217599   4.954390   3.825615
    22  C    2.530421   3.793456   4.228010   3.689843   2.398063
    23  C    1.443677   2.465865   2.815168   2.430001   1.410570
    24  C    2.452712   1.405949   2.419679   3.700529   4.231403
    25  C    2.866065   2.451724   3.714780   4.875397   5.125178
    26  C    4.271467   3.742302   4.870005   6.131646   6.496263
    27  H    6.181905   5.852307   7.022199   8.263428   8.531656
    28  H    5.884227   6.138548   7.506173   8.490220   8.346364
    29  H    4.124076   4.870294   6.252491   6.927091   6.464495
    30  H    2.173919   3.405338   4.596967   4.900976   4.180193
    31  H    3.426026   2.163920   1.088057   2.137329   3.400295
    32  H    3.902548   3.397451   2.136457   1.088214   2.164704
    33  H    4.603215   4.819221   4.001326   2.612142   2.139558
    34  H    5.066628   6.413468   6.885351   6.218182   4.836963
    35  H    7.095260   8.317055   8.483351   7.513812   6.139600
    36  H    8.678251   9.705703   9.546833   8.349387   7.120355
    37  H    9.720418  10.489752  10.005587   8.663500   7.692102
    38  H    8.823423   9.294079   8.536629   7.145897   6.488505
    39  H    6.531306   6.896257   6.105459   4.714560   4.123982
    40  H    2.776831   4.177398   4.895060   4.585335   3.391533
    41  H    3.433101   2.159681   2.639153   4.028026   4.845220
    42  H    4.916032   4.104494   5.002659   6.353707   6.929124
                   11         12         13         14         15
    11  C    0.000000
    12  C    1.415060   0.000000
    13  C    2.398360   1.410512   0.000000
    14  C    3.690617   2.430696   1.398497   0.000000
    15  C    4.229478   2.817059   2.428464   1.391883   0.000000
    16  C    3.794285   2.467285   2.826059   2.423862   1.396305
    17  C    4.979580   3.761811   4.231332   3.700378   2.419859
    18  C    5.245171   4.289937   5.106583   4.859134   3.701216
    19  C    4.440831   3.809191   4.929185   5.069801   4.196276
    20  C    3.043150   2.530249   3.791562   4.230903   3.700956
    21  C    2.528528   1.442753   2.463433   2.814733   2.435980
    22  C    2.750693   2.448419   1.409372   2.427335   3.708893
    23  C    2.448973   2.903800   2.486581   3.746963   4.913850
    24  C    5.640153   6.549098   6.235617   7.407569   8.651057
    25  C    6.512185   7.210232   6.635981   7.636299   8.967284
    26  C    7.892974   8.615239   8.026637   8.989572  10.335504
    27  H    9.905447  10.503997   9.757887  10.559580  11.941862
    28  H    9.584507   9.854196   8.842228   9.356456  10.743018
    29  H    7.553914   7.623424   6.507104   6.922701   8.303077
    30  H    5.156771   5.181485   4.106921   4.700500   6.091638
    31  H    4.562771   5.853217   6.138151   7.513166   8.483056
    32  H    2.663464   4.077630   4.836356   6.218125   6.885753
    33  H    1.087128   2.165604   3.391431   4.585323   4.895349
    34  H    4.562299   3.421883   2.165062   1.088099   2.136376
    35  H    5.316124   3.904667   3.401943   2.138372   1.087966
    36  H    5.932567   4.635206   4.860318   4.045888   2.657053
    37  H    6.313185   5.376201   6.161758   5.817035   4.572049
    38  H    5.092182   4.685085   5.899153   6.131755   5.283175
    39  H    2.770326   2.801123   4.196643   4.915031   4.607956
    40  H    3.837145   3.412157   2.138436   2.611548   4.001059
    41  H    6.225585   7.273118   7.110349   8.341937   9.538263
    42  H    8.338393   9.193196   8.737353   9.786065  11.101407
                   16         17         18         19         20
    16  C    0.000000
    17  C    1.405522   0.000000
    18  C    2.435786   1.391982   0.000000
    19  C    2.800320   2.399936   1.386098   0.000000
    20  C    2.412546   2.769277   2.410443   1.398332   0.000000
    21  C    1.418412   2.453853   2.847812   2.467307   1.418521
    22  C    4.235180   5.640205   6.493312   6.214745   4.976602
    23  C    5.165656   6.549583   7.191128   6.653864   5.297452
    24  C    8.911015  10.278931  10.806567  10.080933   8.683277
    25  C    9.428003  10.826512  11.499536  10.906558   9.523216
    26  C   10.826769  12.226846  12.904747  12.301373  10.914760
    27  H   12.583778  13.989186  14.769571  14.259294  12.888842
    28  H   11.608511  12.988402  13.948623  13.661252  12.363896
    29  H    9.219718  10.583989  11.595032  11.400113  10.153199
    30  H    6.880054   8.268298   9.212740   8.966766   7.710709
    31  H    8.315808   9.541568   9.736270   8.748834   7.389263
    32  H    6.413142   7.495781   7.504178   6.421100   5.107202
    33  H    4.176952   5.154374   5.125930   4.088927   2.739858
    34  H    3.396766   4.555357   5.804460   6.119303   5.317832
    35  H    2.163297   2.656980   4.046032   4.826597   4.574540
    36  H    2.169480   1.088238   2.137655   3.377577   3.857407
    37  H    3.418660   2.153657   1.086407   2.149794   3.398356
    38  H    3.887179   3.388136   2.148333   1.086899   2.157289
    39  H    3.413456   3.854133   3.371543   2.122773   1.085989
    40  H    4.818101   6.193863   7.191813   7.067562   5.903432
    41  H    9.693579  11.032337  11.460285  10.637790   9.242506
    42  H   11.493648  12.880969  13.472254  12.778028  11.381215
                   21         22         23         24         25
    21  C    0.000000
    22  C    3.760277   0.000000
    23  C    4.346094   1.415537   0.000000
    24  C    7.972222   4.980289   3.761588   0.000000
    25  C    8.652982   5.265223   4.309111   1.401175   0.000000
    26  C   10.057965   6.645027   5.714531   2.450559   1.405430
    27  H   11.940094   8.349552   7.610477   4.602699   3.417629
    28  H   11.225351   7.470804   7.140937   5.294627   3.893592
    29  H    8.939728   5.186519   5.125520   4.582223   3.415181
    30  H    6.512614   2.752784   2.784078   3.854554   3.394090
    31  H    7.091254   5.314701   3.902850   2.656782   4.055804
    32  H    5.063545   4.561665   3.421497   4.555317   5.819451
    33  H    2.773655   3.837360   3.413412   6.194979   7.210990
    34  H    3.902517   2.664583   4.079234   7.497906   7.524654
    35  H    3.427871   4.564880   5.855866   9.544359   9.758221
    36  H    3.440878   6.241632   7.287608  11.046277  11.495826
    37  H    3.934205   7.557091   8.276767  11.890008  12.585442
    38  H    3.444870   7.127347   7.431004  10.690550  11.604339
    39  H    2.184395   5.174209   5.199794   8.284363   9.248217
    40  H    4.601208   1.086953   2.166573   5.156857   5.146856
    41  H    8.661828   5.924656   4.624492   1.088989   2.150607
    42  H   10.628370   7.392681   6.331471   2.702560   2.168843
                   26         27         28         29         30
    26  C    0.000000
    27  H    2.155277   0.000000
    28  H    3.397956   2.481250   0.000000
    29  H    3.869464   4.285881   2.463274   0.000000
    30  H    4.561543   5.891598   4.736184   2.443182   0.000000
    31  H    4.983594   7.120612   7.945665   6.973672   5.542763
    32  H    7.005874   9.156780   9.520332   8.010658   5.981032
    33  H    8.553377  10.627841  10.481887   8.538666   6.175639
    34  H    8.816555  10.215065   8.797456   6.335740   4.329490
    35  H   11.098052  12.597010  11.228998   8.767374   6.706449
    36  H   12.883722  14.558845  13.400071  10.958846   8.737412
    37  H   13.990711  15.850079  14.998110  12.628213  10.262290
    38  H   12.983561  14.992511  14.518993  12.308426   9.866541
    39  H   10.611712  12.655403  12.340393  10.244987   7.813491
    40  H    6.454212   7.952852   6.794542   4.405141   2.092557
    41  H    2.676418   4.760803   5.909111   5.530116   4.943515
    42  H    1.087668   2.464407   4.286133   4.956914   5.521656
                   31         32         33         34         35
    31  H    0.000000
    32  H    2.430543   0.000000
    33  H    4.659907   2.380478   0.000000
    34  H    7.969384   6.946300   5.530175   0.000000
    35  H    9.518294   7.969789   5.975343   2.431637   0.000000
    36  H   10.476039   8.504408   6.190307   4.707016   2.428146
    37  H   10.774434   8.504651   6.137179   6.705513   4.728962
    38  H    9.135312   6.734889   4.536210   7.190464   5.896409
    39  H    6.717825   4.340737   2.106456   5.995232   5.551662
    40  H    5.975281   5.530151   4.924025   2.380133   4.660526
    41  H    2.408141   4.687354   6.628199   8.499723  10.469092
    42  H    4.876372   7.111841   8.889996   9.693450  11.914361
                   36         37         38         39         40
    36  H    0.000000
    37  H    2.458158   0.000000
    38  H    4.275605   2.480099   0.000000
    39  H    4.941941   4.264476   2.431385   0.000000
    40  H    6.644859   8.223140   8.029769   6.192130   0.000000
    41  H   11.850991  12.534665  11.163862   8.734595   6.187517
    42  H   13.593424  14.557831  13.392865  10.984149   7.315244
                   41         42
    41  H    0.000000
    42  H    2.468442   0.000000
 Stoichiometry    C26H16
 Framework group  CS[SG(C26H16)]
 Deg. of freedom    81
 Full point group                 CS      NOp   2
 Largest Abelian subgroup         CS      NOp   2
 Largest concise Abelian subgroup C1      NOp   1
                         Standard orientation:                         
 ---------------------------------------------------------------------
 Center     Atomic      Atomic             Coordinates (Angstroms)
 Number     Number       Type             X           Y           Z
 ---------------------------------------------------------------------
      1          6           0       -6.454312   -2.378737   -0.000000
      2          6           0       -5.544952   -3.431316   -0.000000
      3          6           0       -4.174470   -3.166768   -0.000000
      4          6           0       -3.695361   -1.845297   -0.000000
      5          6           0       -2.316765   -1.558408   -0.000000
      6          6           0       -1.802339   -0.235626   -0.000000
      7          6           0       -2.754087    0.812639    0.000000
      8          6           0       -2.325016    2.141661    0.000000
      9          6           0       -0.968662    2.452747    0.000000
     10          6           0       -0.000000    1.444960    0.000000
     11          6           0        1.365878    1.791975    0.000000
     12          6           0        2.410216    0.837119    0.000000
     13          6           0        2.014962   -0.516882   -0.000000
     14          6           0        2.984478   -1.524768   -0.000000
     15          6           0        4.341221   -1.213989   -0.000000
     16          6           0        4.769469    0.115023    0.000000
     17          6           0        6.146274    0.397690    0.000000
     18          6           0        6.610409    1.710013    0.000000
     19          6           0        5.700827    2.755924    0.000000
     20          6           0        4.328609    2.486946    0.000000
     21          6           0        3.815324    1.164547    0.000000
     22          6           0        0.648913   -0.863636   -0.000000
     23          6           0       -0.396132    0.091155    0.000000
     24          6           0       -4.131778    0.532171    0.000000
     25          6           0       -4.615689   -0.782789   -0.000000
     26          6           0       -5.993161   -1.061721   -0.000000
     27          1           0       -7.522173   -2.580715   -0.000000
     28          1           0       -5.900175   -4.458405   -0.000000
     29          1           0       -3.479296   -4.003360   -0.000000
     30          1           0       -1.633258   -2.402959   -0.000000
     31          1           0       -3.045699    2.956820    0.000000
     32          1           0       -0.676885    3.501115    0.000000
     33          1           0        1.612998    2.850644    0.000000
     34          1           0        2.692889   -2.573069   -0.000000
     35          1           0        5.062718   -2.028306   -0.000000
     36          1           0        6.874133   -0.411312   -0.000000
     37          1           0        7.677928    1.911715    0.000000
     38          1           0        6.052039    3.784515    0.000000
     39          1           0        3.660989    3.343482    0.000000
     40          1           0        0.403394   -1.922497   -0.000000
     41          1           0       -4.844396    1.355623    0.000000
     42          1           0       -6.718347   -0.251087   -0.000000
 ---------------------------------------------------------------------
 Rotational constants (GHZ):           0.7132793           0.0897969           0.0797562
 Standard basis: def2SVPP (5D, 7F)
 There are   318 symmetry adapted cartesian basis functions of A'  symmetry.
 There are   104 symmetry adapted cartesian basis functions of A"  symmetry.
 There are   292 symmetry adapted basis functions of A'  symmetry.
 There are   104 symmetry adapted basis functions of A"  symmetry.
   396 basis functions,   714 primitive gaussians,   422 cartesian basis functions
    86 alpha electrons       86 beta electrons
       nuclear repulsion energy      1949.0078562773 Hartrees.
 NAtoms=   42 NActive=   42 NUniq=   42 SFac= 1.00D+00 NAtFMM=   60 NAOKFM=F Big=F
 Integral buffers will be    131072 words long.
 Raffenetti 2 integral format.
 Two-electron integral symmetry is turned on.
 Nuclear repulsion after empirical dispersion term =     1948.8983346301 Hartrees.
 One-electron integrals computed using PRISM.
   2 Symmetry operations used in ECPInt.
 ECPInt:  NShTT=   17766 NPrTT=   71262 LenC2=   15005 LenP2D=   39755.
 LDataN:  DoStor=T MaxTD1= 4 Len=   56
 NBasis=   396 RedAO= T EigKep=  1.98D-04  NBF=   292   104
 NBsUse=   396 1.00D-06 EigRej= -1.00D+00 NBFU=   292   104
 ExpMin= 1.22D-01 ExpMax= 1.24D+03 ExpMxC= 1.86D+02 IAcc=3 IRadAn=         5 AccDes= 0.00D+00
 Harris functional with IExCor=  402 and IRadAn=       5 diagonalized for initial guess.
 HarFok:  IExCor=  402 AccDes= 0.00D+00 IRadAn=         5 IDoV= 1 UseB2=F ITyADJ=14
 ICtDFT=  3500011 ScaDFX=  1.000000  1.000000  1.000000  1.000000
 FoFCou: FMM=F IPFlag=           0 FMFlag=      100000 FMFlg1=           0
         NFxFlg=           0 DoJE=T BraDBF=F KetDBF=T FulRan=T
         wScrn=  0.000000 ICntrl=       500 IOpCl=  0 I1Cent=   200000004 NGrid=           0
         NMat0=    1 NMatS0=      1 NMatT0=    0 NMatD0=    1 NMtDS0=    0 NMtDT0=    0
 Petite list used in FoFCou.
 Initial guess orbital symmetries:
       Occupied  (A') (A') (A') (A') (A') (A') (A') (A') (A') (A')
                 (A') (A') (A') (A') (A') (A') (A') (A') (A') (A')
                 (A') (A') (A') (A') (A') (A') (A') (A') (A') (A')
                 (A') (A') (A') (A') (A') (A') (A') (A') (A') (A')
                 (A') (A') (A') (A') (A') (A') (A') (A') (A') (A')
                 (A') (A') (A') (A') (A') (A') (A') (A') (A') (A')
                 (A') (A') (A') (A') (A') (A') (A") (A') (A") (A')
                 (A') (A") (A') (A') (A') (A") (A') (A") (A") (A")
                 (A") (A") (A") (A") (A") (A")
       Virtual   (A") (A") (A") (A") (A") (A") (A") (A") (A") (A")
                 (A') (A') (A') (A') (A') (A") (A') (A') (A') (A")
                 (A') (A') (A') (A') (A') (A") (A') (A') (A') (A')
                 (A') (A') (A') (A') (A') (A') (A') (A') (A') (A')
                 (A') (A') (A') (A') (A') (A') (A') (A') (A') (A')
                 (A') (A') (A') (A') (A') (A') (A') (A') (A') (A')
                 (A') (A') (A') (A') (A') (A") (A') (A') (A") (A')
                 (A') (A') (A") (A') (A') (A") (A') (A") (A') (A")
                 (A') (A') (A') (A") (A') (A") (A') (A') (A") (A')
                 (A") (A') (A") (A") (A") (A") (A") (A") (A') (A')
                 (A") (A') (A') (A') (A') (A') (A') (A') (A") (A')
                 (A') (A') (A') (A") (A') (A') (A') (A") (A') (A')
                 (A") (A') (A') (A") (A') (A') (A') (A') (A') (A")
                 (A') (A') (A') (A") (A') (A') (A') (A') (A") (A")
                 (A') (A') (A') (A') (A') (A') (A') (A') (A') (A')
                 (A') (A') (A') (A') (A') (A') (A') (A') (A") (A")
                 (A') (A") (A') (A") (A') (A") (A") (A') (A') (A')
                 (A') (A') (A') (A") (A') (A") (A') (A') (A") (A")
                 (A") (A') (A") (A') (A") (A") (A') (A") (A') (A")
                 (A") (A") (A") (A") (A") (A') (A') (A') (A') (A')
                 (A') (A') (A') (A') (A') (A') (A') (A') (A") (A')
                 (A') (A") (A') (A') (A') (A') (A") (A') (A") (A')
                 (A') (A') (A") (A') (A') (A') (A') (A") (A') (A")
                 (A') (A') (A') (A") (A') (A') (A') (A") (A') (A')
                 (A') (A') (A") (A') (A') (A") (A') (A') (A") (A")
                 (A') (A") (A') (A") (A') (A') (A") (A") (A") (A")
                 (A') (A") (A") (A') (A") (A") (A") (A") (A') (A')
                 (A') (A') (A') (A') (A') (A') (A") (A') (A") (A')
                 (A') (A") (A') (A') (A') (A") (A") (A') (A') (A')
                 (A") (A') (A') (A') (A') (A') (A') (A') (A') (A')
                 (A') (A') (A') (A') (A') (A') (A') (A') (A') (A')
 The electronic state of the initial guess is 1-A'.
 Requested convergence on RMS density matrix=1.00D-08 within 128 cycles.
 Requested convergence on MAX density matrix=1.00D-06.
 Requested convergence on             energy=1.00D-06.
 No special actions if energy rises.
 Integral accuracy reduced to 1.0D-05 until final iterations.
 Initial convergence to 1.0D-05 achieved.  Increase integral accuracy.
 SCF Done:  E(RB3LYP) =  -999.813288908     A.U. after   15 cycles
            NFock= 15  Conv=0.46D-08     -V/T= 2.0104

 **********************************************************************

            Population analysis using the SCF Density.

 **********************************************************************

 Orbital symmetries:
       Occupied  (A') (A') (A') (A') (A') (A') (A') (A') (A') (A')
                 (A') (A') (A') (A') (A') (A') (A') (A') (A') (A')
                 (A') (A') (A') (A') (A') (A') (A') (A') (A') (A')
                 (A') (A') (A') (A') (A') (A') (A') (A') (A') (A')
                 (A') (A') (A') (A') (A') (A') (A') (A') (A') (A')
                 (A') (A') (A') (A') (A') (A') (A') (A') (A') (A')
                 (A') (A') (A") (A') (A') (A") (A') (A') (A") (A')
                 (A') (A') (A") (A') (A') (A') (A') (A") (A") (A")
                 (A") (A") (A") (A") (A") (A")
       Virtual   (A") (A") (A") (A") (A") (A") (A") (A") (A') (A')
                 (A') (A") (A') (A') (A') (A') (A') (A") (A') (A')
                 (A') (A') (A') (A") (A') (A') (A") (A') (A') (A")
                 (A') (A') (A') (A') (A') (A') (A') (A') (A') (A')
                 (A') (A') (A') (A') (A') (A') (A') (A') (A') (A')
                 (A') (A') (A') (A') (A') (A') (A') (A') (A') (A')
                 (A') (A') (A') (A") (A') (A') (A") (A') (A') (A')
                 (A") (A') (A') (A") (A') (A') (A") (A") (A') (A')
                 (A') (A") (A') (A') (A") (A') (A") (A') (A") (A')
                 (A") (A") (A') (A") (A") (A') (A") (A") (A") (A')
                 (A') (A") (A') (A') (A') (A') (A') (A") (A') (A')
                 (A") (A') (A') (A") (A') (A') (A") (A') (A') (A')
                 (A') (A') (A') (A") (A') (A') (A') (A') (A") (A')
                 (A') (A') (A') (A') (A') (A') (A") (A') (A") (A')
                 (A') (A') (A') (A') (A') (A') (A') (A') (A') (A')
                 (A') (A') (A') (A') (A') (A') (A') (A') (A') (A')
                 (A") (A") (A') (A") (A') (A") (A') (A") (A") (A')
                 (A') (A') (A') (A') (A') (A') (A") (A") (A') (A")
                 (A') (A") (A") (A") (A') (A') (A") (A") (A") (A')
                 (A") (A") (A") (A") (A") (A') (A") (A') (A') (A')
                 (A') (A') (A') (A') (A') (A') (A") (A') (A') (A')
                 (A") (A') (A') (A") (A') (A') (A') (A') (A") (A')
                 (A') (A") (A') (A') (A') (A') (A") (A') (A') (A")
                 (A') (A') (A") (A') (A') (A') (A') (A") (A') (A')
                 (A') (A') (A") (A') (A') (A") (A") (A') (A') (A")
                 (A') (A") (A') (A") (A') (A") (A') (A") (A") (A")
                 (A') (A") (A") (A') (A") (A") (A") (A") (A') (A')
                 (A') (A') (A') (A') (A') (A") (A') (A") (A') (A')
                 (A") (A') (A') (A') (A") (A") (A') (A') (A') (A")
                 (A') (A') (A') (A') (A') (A') (A') (A') (A') (A')
                 (A') (A') (A') (A') (A') (A') (A') (A') (A') (A')
 The electronic state is 1-A'.
 Alpha  occ. eigenvalues --  -10.20293 -10.20199 -10.20172 -10.20135 -10.19648
 Alpha  occ. eigenvalues --  -10.19641 -10.19624 -10.19610 -10.19568 -10.19467
 Alpha  occ. eigenvalues --  -10.19368 -10.19279 -10.19272 -10.19223 -10.19123
 Alpha  occ. eigenvalues --  -10.19064 -10.19031 -10.19010 -10.19005 -10.19004
 Alpha  occ. eigenvalues --  -10.18977 -10.18974 -10.18972 -10.18924 -10.18908
 Alpha  occ. eigenvalues --  -10.18897  -0.89170  -0.88001  -0.86142  -0.83601
 Alpha  occ. eigenvalues --   -0.81104  -0.79081  -0.78161  -0.76755  -0.75575
 Alpha  occ. eigenvalues --   -0.74611  -0.72440  -0.70565  -0.69668  -0.65459
 Alpha  occ. eigenvalues --   -0.64471  -0.62474  -0.61419  -0.60640  -0.60200
 Alpha  occ. eigenvalues --   -0.58539  -0.56189  -0.53920  -0.52828  -0.52554
 Alpha  occ. eigenvalues --   -0.50854  -0.49958  -0.49019  -0.46948  -0.46425
 Alpha  occ. eigenvalues --   -0.46350  -0.44813  -0.44526  -0.43446  -0.43046
 Alpha  occ. eigenvalues --   -0.42853  -0.42257  -0.42011  -0.41679  -0.40772
 Alpha  occ. eigenvalues --   -0.40554  -0.40031  -0.39698  -0.38238  -0.38230
 Alpha  occ. eigenvalues --   -0.37547  -0.36032  -0.35245  -0.34894  -0.34232
 Alpha  occ. eigenvalues --   -0.33625  -0.32990  -0.32580  -0.31018  -0.29900
 Alpha  occ. eigenvalues --   -0.28501  -0.26783  -0.25808  -0.23073  -0.20948
 Alpha  occ. eigenvalues --   -0.19589
 Alpha virt. eigenvalues --   -0.07411  -0.06704  -0.04062  -0.01141  -0.00259
 Alpha virt. eigenvalues --    0.01232   0.03445   0.04621   0.06168   0.06305
 Alpha virt. eigenvalues --    0.06562   0.07362   0.07734   0.07847   0.09548
 Alpha virt. eigenvalues --    0.09893   0.11312   0.11412   0.11903   0.13035
 Alpha virt. eigenvalues --    0.13355   0.14743   0.15354   0.16258   0.16944
 Alpha virt. eigenvalues --    0.18807   0.20048   0.21493   0.22289   0.22932
 Alpha virt. eigenvalues --    0.24016   0.24164   0.25274   0.26068   0.26912
 Alpha virt. eigenvalues --    0.27326   0.27560   0.27744   0.28435   0.28649
 Alpha virt. eigenvalues --    0.29632   0.30225   0.30803   0.31572   0.32032
 Alpha virt. eigenvalues --    0.32390   0.33051   0.33513   0.34533   0.35080
 Alpha virt. eigenvalues --    0.35175   0.35838   0.36806   0.37204   0.38161
 Alpha virt. eigenvalues --    0.38912   0.39023   0.39869   0.40870   0.41639
 Alpha virt. eigenvalues --    0.42032   0.42667   0.43450   0.44343   0.44586
 Alpha virt. eigenvalues --    0.45062   0.45366   0.45448   0.45856   0.46765
 Alpha virt. eigenvalues --    0.46875   0.47301   0.47712   0.47910   0.48022
 Alpha virt. eigenvalues --    0.48845   0.48937   0.49496   0.49805   0.50228
 Alpha virt. eigenvalues --    0.50708   0.51133   0.51284   0.52064   0.52376
 Alpha virt. eigenvalues --    0.52553   0.53964   0.54871   0.55717   0.56227
 Alpha virt. eigenvalues --    0.56250   0.57221   0.57336   0.58373   0.59023
 Alpha virt. eigenvalues --    0.59070   0.61261   0.62514   0.62972   0.65018
 Alpha virt. eigenvalues --    0.65490   0.66196   0.66473   0.66803   0.67180
 Alpha virt. eigenvalues --    0.67348   0.67953   0.68414   0.68749   0.68866
 Alpha virt. eigenvalues --    0.69533   0.69691   0.69767   0.70312   0.70949
 Alpha virt. eigenvalues --    0.71352   0.72205   0.72228   0.72471   0.73335
 Alpha virt. eigenvalues --    0.73874   0.74444   0.75626   0.75777   0.76278
 Alpha virt. eigenvalues --    0.76467   0.77058   0.77458   0.78026   0.79123
 Alpha virt. eigenvalues --    0.79668   0.80104   0.80684   0.81394   0.81758
 Alpha virt. eigenvalues --    0.82297   0.82352   0.83090   0.83372   0.84037
 Alpha virt. eigenvalues --    0.86071   0.86932   0.87975   0.89199   0.90066
 Alpha virt. eigenvalues --    0.91730   0.93744   0.97738   0.98195   1.00663
 Alpha virt. eigenvalues --    1.01196   1.08724   1.09872   1.10590   1.12244
 Alpha virt. eigenvalues --    1.13877   1.14411   1.17877   1.19397   1.20569
 Alpha virt. eigenvalues --    1.20758   1.21787   1.22546   1.22903   1.23646
 Alpha virt. eigenvalues --    1.24071   1.24094   1.25212   1.25637   1.27123
 Alpha virt. eigenvalues --    1.28213   1.28439   1.29428   1.30902   1.33106
 Alpha virt. eigenvalues --    1.33548   1.33738   1.36397   1.36907   1.38460
 Alpha virt. eigenvalues --    1.39212   1.39559   1.40057   1.41033   1.41358
 Alpha virt. eigenvalues --    1.42146   1.43293   1.45004   1.45920   1.46346
 Alpha virt. eigenvalues --    1.46978   1.48443   1.48851   1.49234   1.49299
 Alpha virt. eigenvalues --    1.49305   1.49855   1.51425   1.52240   1.53563
 Alpha virt. eigenvalues --    1.57323   1.67604   1.69550   1.70613   1.72038
 Alpha virt. eigenvalues --    1.72297   1.74035   1.74224   1.74932   1.76174
 Alpha virt. eigenvalues --    1.77383   1.78347   1.80787   1.82636   1.83197
 Alpha virt. eigenvalues --    1.83464   1.84022   1.84189   1.85018   1.86688
 Alpha virt. eigenvalues --    1.87011   1.87042   1.87781   1.89452   1.90011
 Alpha virt. eigenvalues --    1.90547   1.93473   1.94314   1.95728   1.96581
 Alpha virt. eigenvalues --    1.98285   2.01174   2.02108   2.02900   2.05234
 Alpha virt. eigenvalues --    2.06911   2.07906   2.08046   2.08902   2.09973
 Alpha virt. eigenvalues --    2.10502   2.12466   2.13919   2.15882   2.16388
 Alpha virt. eigenvalues --    2.17622   2.19147   2.19355   2.19913   2.20510
 Alpha virt. eigenvalues --    2.21203   2.21211   2.23097   2.26458   2.26870
 Alpha virt. eigenvalues --    2.27331   2.27451   2.28093   2.28563   2.29732
 Alpha virt. eigenvalues --    2.31424   2.32811   2.33847   2.34868   2.35096
 Alpha virt. eigenvalues --    2.36053   2.37207   2.39705   2.42029   2.47676
 Alpha virt. eigenvalues --    2.48141   2.49573   2.53469   2.55961   2.57207
 Alpha virt. eigenvalues --    2.58317   2.58512   2.59506   2.60408   2.61704
 Alpha virt. eigenvalues --    2.62685   2.63001   2.64472   2.66585   2.67098
 Alpha virt. eigenvalues --    2.67314   2.67384   2.68904   2.70403   2.70690
 Alpha virt. eigenvalues --    2.71579   2.73303   2.73946   2.77936   2.81148
 Alpha virt. eigenvalues --    2.82334   2.87746   2.89662   2.90894   2.93378
 Alpha virt. eigenvalues --    2.96115   3.00456   3.03185   3.07354   3.28793
 Alpha virt. eigenvalues --    3.29900   3.36755   3.46315   3.49098   3.54872
          Condensed to atoms (all electrons):
               1          2          3          4          5          6
     1  C    5.238694   0.145607   0.147508  -0.158742  -0.002413   0.000263
     2  C    0.145607   5.237303   0.223215   0.143585   0.019954  -0.001109
     3  C    0.147508   0.223215   5.459230   0.209607  -0.154619   0.017456
     4  C   -0.158742   0.143585   0.209607   5.404260   0.249131   0.118719
     5  C   -0.002413   0.019954  -0.154619   0.249131   5.701017   0.291075
     6  C    0.000263  -0.001109   0.017456   0.118719   0.291075   5.550215
     7  C   -0.001319   0.000327  -0.001852  -0.147984   0.007246   0.036878
     8  C    0.000018  -0.000005   0.000095  -0.001677   0.026244   0.031429
     9  C   -0.000000   0.000000  -0.000005   0.000062  -0.003599  -0.140100
    10  C    0.000000  -0.000000   0.000012   0.000637   0.023226   0.009246
    11  C    0.000000  -0.000000   0.000000   0.000001  -0.000301   0.025764
    12  C   -0.000000   0.000000  -0.000000   0.000004   0.000059  -0.002938
    13  C   -0.000000   0.000000  -0.000001  -0.000126   0.000036   0.023165
    14  C   -0.000000   0.000000  -0.000000  -0.000001  -0.000052  -0.000698
    15  C    0.000000  -0.000000   0.000000   0.000000   0.000001   0.000005
    16  C   -0.000000   0.000000  -0.000000  -0.000000  -0.000000  -0.000004
    17  C   -0.000000   0.000000  -0.000000   0.000000   0.000000  -0.000000
    18  C   -0.000000   0.000000   0.000000  -0.000000  -0.000000   0.000000
    19  C    0.000000  -0.000000   0.000000   0.000000   0.000000  -0.000000
    20  C    0.000000  -0.000000   0.000000   0.000000   0.000000   0.000000
    21  C    0.000000  -0.000000   0.000000   0.000000   0.000001   0.000126
    22  C   -0.000000   0.000001  -0.000057   0.000017  -0.031030  -0.154268
    23  C   -0.000004   0.000005  -0.000565   0.023038  -0.150604   0.193464
    24  C    0.020304  -0.002309   0.026374   0.029709  -0.142815   0.033580
    25  C    0.146161  -0.160976   0.045703  -0.031310   0.019143  -0.132995
    26  C    0.218898   0.148015  -0.177061   0.046653   0.026250  -0.001325
    27  H    0.436282  -0.084637   0.015135  -0.001401   0.000047  -0.000001
    28  H   -0.084738   0.436369  -0.076835   0.015769  -0.000516   0.000006
    29  H    0.015425  -0.081369   0.434274  -0.076243  -0.023444   0.000542
    30  H   -0.000010   0.000482  -0.018065  -0.082906   0.414124  -0.050868
    31  H    0.000000  -0.000000   0.000001  -0.000022  -0.000378   0.015838
    32  H    0.000000   0.000000   0.000000  -0.000002   0.000062  -0.001591
    33  H    0.000000  -0.000000   0.000000  -0.000000   0.000012  -0.000210
    34  H    0.000000   0.000000   0.000000  -0.000000   0.000010  -0.000057
    35  H   -0.000000   0.000000   0.000000  -0.000000  -0.000000   0.000000
    36  H    0.000000  -0.000000  -0.000000   0.000000   0.000000  -0.000000
    37  H    0.000000   0.000000  -0.000000   0.000000   0.000000  -0.000000
    38  H    0.000000  -0.000000   0.000000   0.000000  -0.000000   0.000000
    39  H    0.000000   0.000000   0.000000  -0.000000  -0.000000  -0.000001
    40  H   -0.000000   0.000001  -0.000040   0.001535   0.012356  -0.040280
    41  H    0.000556  -0.000022  -0.000347   0.019125  -0.002597   0.017370
    42  H   -0.081825   0.015559  -0.002095   0.018028  -0.000323  -0.000011
               7          8          9         10         11         12
     1  C   -0.001319   0.000018  -0.000000   0.000000   0.000000  -0.000000
     2  C    0.000327  -0.000005   0.000000  -0.000000  -0.000000   0.000000
     3  C   -0.001852   0.000095  -0.000005   0.000012   0.000000  -0.000000
     4  C   -0.147984  -0.001677   0.000062   0.000637   0.000001   0.000004
     5  C    0.007246   0.026244  -0.003599   0.023226  -0.000301   0.000059
     6  C    0.036878   0.031429  -0.140100   0.009246   0.025764  -0.002938
     7  C    5.502054   0.137790   0.160675  -0.179218  -0.001387  -0.000091
     8  C    0.137790   5.532121   0.186910   0.159466   0.019981  -0.001307
     9  C    0.160675   0.186910   5.536741   0.137867  -0.155871   0.021457
    10  C   -0.179218   0.159466   0.137867   5.484551   0.262617   0.128259
    11  C   -0.001387   0.019981  -0.155871   0.262617   5.727212   0.245770
    12  C   -0.000091  -0.001307   0.021457   0.128259   0.245770   5.563015
    13  C    0.000583   0.000073  -0.001575  -0.163885   0.014345   0.046638
    14  C    0.000012  -0.000004   0.000081  -0.001708   0.026866   0.027338
    15  C   -0.000000   0.000000  -0.000004   0.000101  -0.003483  -0.137524
    16  C    0.000000  -0.000000   0.000010   0.000431   0.023002   0.007205
    17  C    0.000000  -0.000000   0.000000  -0.000003  -0.000267   0.026617
    18  C    0.000000  -0.000000  -0.000000   0.000007   0.000017  -0.004240
    19  C   -0.000000   0.000000  -0.000001  -0.000097   0.000287   0.022110
    20  C   -0.000000   0.000001  -0.000050   0.000250  -0.029212  -0.146912
    21  C   -0.000004   0.000006  -0.000725   0.023285  -0.151610   0.205943
    22  C    0.023667  -0.003543   0.026785   0.010678  -0.148205   0.025896
    23  C    0.012554  -0.140889   0.030300   0.039560   0.026204  -0.133025
    24  C    0.236206  -0.162958   0.020211  -0.000917   0.000066  -0.000001
    25  C    0.151809   0.022608  -0.001519  -0.000121  -0.000002  -0.000000
    26  C    0.018992  -0.001061   0.000018  -0.000006  -0.000000   0.000000
    27  H    0.000009  -0.000000   0.000000  -0.000000   0.000000  -0.000000
    28  H   -0.000002   0.000000  -0.000000   0.000000  -0.000000  -0.000000
    29  H   -0.000008   0.000001  -0.000000   0.000000   0.000000  -0.000000
    30  H    0.019309  -0.000283  -0.000026  -0.001426   0.000026  -0.000023
    31  H   -0.088529   0.444595  -0.079685   0.016887  -0.000622   0.000011
    32  H    0.016743  -0.079772   0.441470  -0.085996  -0.022292   0.001068
    33  H   -0.000071   0.001114  -0.020470  -0.084956   0.421202  -0.055335
    34  H    0.000000  -0.000000   0.000001  -0.000007  -0.000394   0.016645
    35  H    0.000000   0.000000   0.000000  -0.000002   0.000061  -0.001576
    36  H   -0.000000  -0.000000   0.000000  -0.000000   0.000009  -0.000159
    37  H   -0.000000   0.000000   0.000000  -0.000000  -0.000000   0.000054
    38  H   -0.000000   0.000000  -0.000000  -0.000001  -0.000001  -0.000299
    39  H    0.000000  -0.000000  -0.000051   0.001707   0.010807  -0.040819
    40  H   -0.001419  -0.000016  -0.000335   0.020571  -0.002461   0.017970
    41  H   -0.084096  -0.020975   0.001175  -0.000082  -0.000001   0.000000
    42  H    0.000726  -0.000046   0.000001  -0.000000  -0.000000  -0.000000
              13         14         15         16         17         18
     1  C   -0.000000  -0.000000   0.000000  -0.000000  -0.000000  -0.000000
     2  C    0.000000   0.000000  -0.000000   0.000000   0.000000   0.000000
     3  C   -0.000001  -0.000000   0.000000  -0.000000  -0.000000   0.000000
     4  C   -0.000126  -0.000001   0.000000  -0.000000   0.000000  -0.000000
     5  C    0.000036  -0.000052   0.000001  -0.000000   0.000000  -0.000000
     6  C    0.023165  -0.000698   0.000005  -0.000004  -0.000000   0.000000
     7  C    0.000583   0.000012  -0.000000   0.000000   0.000000   0.000000
     8  C    0.000073  -0.000004   0.000000  -0.000000  -0.000000  -0.000000
     9  C   -0.001575   0.000081  -0.000004   0.000010   0.000000  -0.000000
    10  C   -0.163885  -0.001708   0.000101   0.000431  -0.000003   0.000007
    11  C    0.014345   0.026866  -0.003483   0.023002  -0.000267   0.000017
    12  C    0.046638   0.027338  -0.137524   0.007205   0.026617  -0.004240
    13  C    5.473896   0.153109   0.155457  -0.173742  -0.001001  -0.000034
    14  C    0.153109   5.523246   0.190554   0.156362   0.019404  -0.001456
    15  C    0.155457   0.190554   5.515115   0.155442  -0.162043   0.022158
    16  C   -0.173742   0.156362   0.155442   5.487315   0.227096   0.150768
    17  C   -0.001001   0.019404  -0.162043   0.227096   5.459769   0.194641
    18  C   -0.000034  -0.001456   0.022158   0.150768   0.194641   5.235272
    19  C    0.000351   0.000214  -0.002355  -0.170465   0.150059   0.167596
    20  C    0.022232  -0.003880   0.027745   0.019769  -0.173270   0.142989
    21  C    0.002267  -0.139066   0.025729   0.075292   0.045857  -0.155946
    22  C    0.251973  -0.155022   0.020047  -0.001381   0.000053  -0.000001
    23  C    0.126720   0.021070  -0.001293  -0.000054  -0.000000  -0.000000
    24  C   -0.000000   0.000000  -0.000000   0.000000  -0.000000  -0.000000
    25  C    0.000005   0.000000  -0.000000   0.000000   0.000000  -0.000000
    26  C    0.000000   0.000000  -0.000000   0.000000  -0.000000   0.000000
    27  H    0.000000  -0.000000  -0.000000   0.000000   0.000000   0.000000
    28  H   -0.000000   0.000000   0.000000  -0.000000   0.000000  -0.000000
    29  H   -0.000000   0.000000   0.000000  -0.000000  -0.000000   0.000000
    30  H    0.001581  -0.000041   0.000000   0.000000   0.000000  -0.000000
    31  H   -0.000003   0.000000   0.000000   0.000000  -0.000000   0.000000
    32  H   -0.000007   0.000001  -0.000000   0.000000   0.000000   0.000000
    33  H    0.020532  -0.000327  -0.000030  -0.001138   0.000034  -0.000048
    34  H   -0.085017   0.440820  -0.080367   0.016722  -0.000566   0.000013
    35  H    0.016809  -0.078905   0.443035  -0.088146  -0.020148   0.001028
    36  H   -0.000083   0.001147  -0.022549  -0.079996   0.440739  -0.083231
    37  H   -0.000000   0.000010  -0.000541   0.015731  -0.078890   0.436412
    38  H    0.000008  -0.000001   0.000030  -0.001651   0.015541  -0.085869
    39  H   -0.001554  -0.000035  -0.000244   0.019042  -0.001923   0.015675
    40  H   -0.085772  -0.020153   0.001068  -0.000064  -0.000002   0.000000
    41  H   -0.000000   0.000000  -0.000000   0.000000   0.000000   0.000000
    42  H    0.000000   0.000000  -0.000000   0.000000  -0.000000   0.000000
              19         20         21         22         23         24
     1  C    0.000000   0.000000   0.000000  -0.000000  -0.000004   0.020304
     2  C   -0.000000  -0.000000  -0.000000   0.000001   0.000005  -0.002309
     3  C    0.000000   0.000000   0.000000  -0.000057  -0.000565   0.026374
     4  C    0.000000   0.000000   0.000000   0.000017   0.023038   0.029709
     5  C    0.000000   0.000000   0.000001  -0.031030  -0.150604  -0.142815
     6  C   -0.000000   0.000000   0.000126  -0.154268   0.193464   0.033580
     7  C   -0.000000  -0.000000  -0.000004   0.023667   0.012554   0.236206
     8  C    0.000000   0.000001   0.000006  -0.003543  -0.140889  -0.162958
     9  C   -0.000001  -0.000050  -0.000725   0.026785   0.030300   0.020211
    10  C   -0.000097   0.000250   0.023285   0.010678   0.039560  -0.000917
    11  C    0.000287  -0.029212  -0.151610  -0.148205   0.026204   0.000066
    12  C    0.022110  -0.146912   0.205943   0.025896  -0.133025  -0.000001
    13  C    0.000351   0.022232   0.002267   0.251973   0.126720  -0.000000
    14  C    0.000214  -0.003880  -0.139066  -0.155022   0.021070   0.000000
    15  C   -0.002355   0.027745   0.025729   0.020047  -0.001293  -0.000000
    16  C   -0.170465   0.019769   0.075292  -0.001381  -0.000054   0.000000
    17  C    0.150059  -0.173270   0.045857   0.000053  -0.000000  -0.000000
    18  C    0.167596   0.142989  -0.155946  -0.000001  -0.000000  -0.000000
    19  C    5.207813   0.244371   0.122990   0.000002   0.000004   0.000000
    20  C    0.244371   5.441643   0.258191  -0.000305   0.000039   0.000000
    21  C    0.122990   0.258191   5.563164   0.026100  -0.002983  -0.000000
    22  C    0.000002  -0.000305   0.026100   5.729894   0.261099  -0.000380
    23  C    0.000004   0.000039  -0.002983   0.261099   5.565218   0.024663
    24  C    0.000000   0.000000  -0.000000  -0.000380   0.024663   5.746983
    25  C   -0.000000  -0.000000   0.000000   0.000066  -0.003260   0.194626
    26  C   -0.000000  -0.000000  -0.000000   0.000001   0.000120  -0.163392
    27  H    0.000000  -0.000000  -0.000000   0.000000   0.000000  -0.000504
    28  H    0.000000   0.000000  -0.000000  -0.000000   0.000000   0.000047
    29  H    0.000000   0.000000   0.000000   0.000005  -0.000039  -0.000348
    30  H    0.000000  -0.000000  -0.000001   0.011834  -0.039834  -0.002159
    31  H   -0.000000  -0.000000   0.000000   0.000064  -0.001540  -0.021225
    32  H   -0.000000   0.000009  -0.000057  -0.000400   0.016483  -0.000603
    33  H    0.001028   0.011449  -0.038451  -0.002482   0.018050  -0.000002
    34  H   -0.000002   0.000056  -0.001663  -0.022590   0.001034   0.000000
    35  H   -0.000068  -0.000303   0.015938  -0.000620   0.000010  -0.000000
    36  H    0.016219  -0.002264   0.017035  -0.000001   0.000000   0.000000
    37  H   -0.084309   0.015161  -0.001210   0.000000   0.000000  -0.000000
    38  H    0.436066  -0.075085   0.015754  -0.000000   0.000000  -0.000000
    39  H   -0.081419   0.417483  -0.047879   0.000026  -0.000019   0.000000
    40  H   -0.000000   0.000012  -0.000209   0.418578  -0.052206   0.000028
    41  H   -0.000000   0.000000  -0.000000   0.000011  -0.000171   0.442215
    42  H   -0.000000  -0.000000  -0.000000   0.000000   0.000000  -0.022404
              25         26         27         28         29         30
     1  C    0.146161   0.218898   0.436282  -0.084738   0.015425  -0.000010
     2  C   -0.160976   0.148015  -0.084637   0.436369  -0.081369   0.000482
     3  C    0.045703  -0.177061   0.015135  -0.076835   0.434274  -0.018065
     4  C   -0.031310   0.046653  -0.001401   0.015769  -0.076243  -0.082906
     5  C    0.019143   0.026250   0.000047  -0.000516  -0.023444   0.414124
     6  C   -0.132995  -0.001325  -0.000001   0.000006   0.000542  -0.050868
     7  C    0.151809   0.018992   0.000009  -0.000002  -0.000008   0.019309
     8  C    0.022608  -0.001061  -0.000000   0.000000   0.000001  -0.000283
     9  C   -0.001519   0.000018   0.000000  -0.000000  -0.000000  -0.000026
    10  C   -0.000121  -0.000006  -0.000000   0.000000   0.000000  -0.001426
    11  C   -0.000002  -0.000000   0.000000  -0.000000   0.000000   0.000026
    12  C   -0.000000   0.000000  -0.000000  -0.000000  -0.000000  -0.000023
    13  C    0.000005   0.000000   0.000000  -0.000000  -0.000000   0.001581
    14  C    0.000000   0.000000  -0.000000   0.000000   0.000000  -0.000041
    15  C   -0.000000  -0.000000  -0.000000   0.000000   0.000000   0.000000
    16  C    0.000000   0.000000   0.000000  -0.000000  -0.000000   0.000000
    17  C    0.000000  -0.000000   0.000000   0.000000  -0.000000   0.000000
    18  C   -0.000000   0.000000   0.000000  -0.000000   0.000000  -0.000000
    19  C   -0.000000  -0.000000   0.000000   0.000000   0.000000   0.000000
    20  C   -0.000000  -0.000000  -0.000000   0.000000   0.000000  -0.000000
    21  C    0.000000  -0.000000  -0.000000  -0.000000   0.000000  -0.000001
    22  C    0.000066   0.000001   0.000000  -0.000000   0.000005   0.011834
    23  C   -0.003260   0.000120   0.000000   0.000000  -0.000039  -0.039834
    24  C    0.194626  -0.163392  -0.000504   0.000047  -0.000348  -0.002159
    25  C    5.454933   0.202213   0.015680  -0.001356   0.018245   0.018623
    26  C    0.202213   5.469917  -0.077018   0.015090  -0.002067  -0.000370
    27  H    0.015680  -0.077018   0.669114  -0.012404  -0.000317  -0.000001
    28  H   -0.001356   0.015090  -0.012404   0.669253  -0.012454  -0.000010
    29  H    0.018245  -0.002067  -0.000317  -0.012454   0.677010   0.009256
    30  H    0.018623  -0.000370  -0.000001  -0.000010   0.009256   0.684653
    31  H    0.001265  -0.000059  -0.000000   0.000000   0.000000   0.000010
    32  H    0.000014  -0.000000  -0.000000   0.000000   0.000000   0.000000
    33  H    0.000000  -0.000000  -0.000000   0.000000   0.000000   0.000001
    34  H    0.000000   0.000000  -0.000000  -0.000000   0.000000  -0.000024
    35  H   -0.000000  -0.000000   0.000000  -0.000000  -0.000000   0.000000
    36  H    0.000000  -0.000000   0.000000   0.000000   0.000000   0.000000
    37  H    0.000000   0.000000   0.000000   0.000000  -0.000000   0.000000
    38  H    0.000000  -0.000000   0.000000   0.000000  -0.000000   0.000000
    39  H   -0.000000  -0.000000  -0.000000   0.000000  -0.000000  -0.000000
    40  H   -0.000030  -0.000000  -0.000000   0.000000  -0.000030   0.001851
    41  H   -0.084233  -0.018975  -0.000014  -0.000001   0.000012   0.000026
    42  H   -0.078834   0.437382  -0.012384  -0.000320   0.000036   0.000012
              31         32         33         34         35         36
     1  C    0.000000   0.000000   0.000000   0.000000  -0.000000   0.000000
     2  C   -0.000000   0.000000  -0.000000   0.000000   0.000000  -0.000000
     3  C    0.000001   0.000000   0.000000   0.000000   0.000000  -0.000000
     4  C   -0.000022  -0.000002  -0.000000  -0.000000  -0.000000   0.000000
     5  C   -0.000378   0.000062   0.000012   0.000010  -0.000000   0.000000
     6  C    0.015838  -0.001591  -0.000210  -0.000057   0.000000  -0.000000
     7  C   -0.088529   0.016743  -0.000071   0.000000   0.000000  -0.000000
     8  C    0.444595  -0.079772   0.001114  -0.000000   0.000000  -0.000000
     9  C   -0.079685   0.441470  -0.020470   0.000001   0.000000   0.000000
    10  C    0.016887  -0.085996  -0.084956  -0.000007  -0.000002  -0.000000
    11  C   -0.000622  -0.022292   0.421202  -0.000394   0.000061   0.000009
    12  C    0.000011   0.001068  -0.055335   0.016645  -0.001576  -0.000159
    13  C   -0.000003  -0.000007   0.020532  -0.085017   0.016809  -0.000083
    14  C    0.000000   0.000001  -0.000327   0.440820  -0.078905   0.001147
    15  C    0.000000  -0.000000  -0.000030  -0.080367   0.443035  -0.022549
    16  C    0.000000   0.000000  -0.001138   0.016722  -0.088146  -0.079996
[...]
 0001036,-0.00000424,0.00022819,0.00000942,0.00008382,-0.00040353,-0.00
 001017,-0.00002631,0.00010427,0.00002973,0.00015245,-0.00086152,-0.000
 15384,0.00017140,-0.00066093,-0.00072249,-0.00158179,0.00564122,0.0030
 9771,-0.00368434,0.00286310,0.02087893,-0.03575098,-0.04342694,-0.0006
 8087,0.00041140,0.00380668,-0.00027243,-0.00113001,0.00776122,-0.00000
 802,0.00000450,-0.00001436,0.00000433,0.00000180,0.00004318,0.00000122
 ,-0.00000201,-0.00000079,0.00000032,0.00000188,0.00000056,-0.00000015,
 -0.00000162,-0.00000085,0.00000053,-0.00000013,0.00000046,0.00000034,-
 0.00000051,0.00000067,-0.00000035,-0.00000026,0.00000075,-0.00000055,0
 .00000025,0.00000061,0.00000093,0.00000018,0.00000132,-0.00000057,-0.0
 0000040,0.00000574,0.00000128,-0.00000578,0.00001628,0.00000279,-0.000
 01654,0.00008984,-0.00000566,0.00000056,0.00003750,0.00014048,-0.00019
 853,0.00018664,0.00000324,0.00078684,-0.00330172,-0.02240213,0.0398507
 5,0.03244100,0.00000570,-0.00000902,-0.00000151,0.00001179,-0.00000145
 ,-0.00000017,0.00000337,0.00001466,0.00000257,0.00000333,-0.00000723,-
 0.00000109,0.00001312,0.00001751,0.00000305,0.00000518,-0.00002819,-0.
 00000527,0.00002126,0.00000852,0.00000156,-0.00002982,0.00003009,0.000
 00513,0.00000999,0.00000355,0.00000084,-0.00008511,-0.00024338,-0.0000
 4077,-0.00255556,0.00167472,0.00027088,-0.00021499,-0.00128640,-0.0002
 0053,0.00009178,0.00001061,0.00000278,0.00012649,0.00002582,0.00000684
 ,0.00064500,0.00065880,0.00011673,-0.00190926,0.00279507,0.00042692,-0
 .00057193,0.00074320,0.00012820,-0.00538226,0.00111946,0.00009856,-0.0
 0986999,-0.03003321,-0.00530359,-0.10873471,-0.10587658,-0.01883331,0.
 01264914,0.01460449,0.00259137,0.00009705,-0.00009997,-0.00001724,0.00
 000956,-0.00005052,-0.00000850,-0.00001298,-0.00001595,-0.00000282,0.0
 0001049,0.00000088,0.00000021,-0.00001054,-0.00001023,-0.00000185,0.00
 000443,-0.00000071,-0.00000009,0.00000312,-0.00000283,-0.00000047,-0.0
 0000283,-0.00000188,-0.00000035,-0.00000698,0.00000151,0.00000017,0.00
 001495,0.00000550,0.00000106,-0.00000581,-0.00002191,-0.00000405,-0.00
 327708,-0.00003918,-0.00004008,-0.00001962,-0.00002158,-0.00000405,-0.
 00013643,0.00023208,0.00003910,0.00004541,-0.00007322,-0.00000461,-0.0
 0053762,-0.00128767,-0.00022764,0.00122521,0.00028140,0.00009273,0.118
 34546,0.00000175,0.00000193,0.00000054,-0.00000474,0.00000654,0.000000
 97,-0.00000501,-0.00000939,-0.00000138,-0.00000417,0.00001598,0.000006
 02,-0.00002300,-0.00001756,-0.00000501,-0.00002524,0.00008467,0.000004
 18,0.00001249,-0.00001084,-0.00000347,0.00001204,-0.00001953,0.0000001
 4,0.00004587,0.00000114,0.00000422,0.00004844,0.00080304,0.00018554,-0
 .00087938,-0.00068223,-0.00012770,-0.00179248,-0.00024004,0.00050279,0
 .00013831,-0.00013019,-0.00001508,-0.00004434,0.00000251,0.00003439,-0
 .00106610,-0.00062324,-0.00016219,0.00416474,-0.00185584,-0.00129834,0
 .00071287,0.00041763,0.00016746,-0.00021964,0.00180113,-0.00100588,0.0
 0157442,0.00156160,-0.00055640,-0.10639490,-0.27986989,-0.04258415,-0.
 01277880,-0.01824122,-0.00390813,-0.00009929,0.00011026,0.00000278,-0.
 00015486,-0.00000286,0.00000244,-0.00000037,0.00001234,0.00000292,0.00
 000645,-0.00000469,-0.00000119,0.00000066,0.00000549,0.00000093,-0.000
 00190,0.00000035,-0.00000005,-0.00000186,0.00000122,0.00000005,0.00000
 105,0.00000235,0.00000032,0.00000060,0.00000487,-0.00000004,-0.0000096
 1,-0.00000125,-0.00000031,0.00001138,0.00003303,0.00000055,-0.00023862
 ,0.00176124,0.00008325,0.00005818,0.00001924,-0.00000038,0.00020515,-0
 .00031112,-0.00005346,-0.00008110,-0.00009883,0.00016487,0.00012499,-0
 .00004714,-0.00002934,-0.00019294,0.00077044,0.00096050,0.11689153,0.2
 9474423,0.00000035,0.00000047,-0.00000106,-0.00000074,0.00000100,0.000
 00088,-0.00000083,-0.00000123,-0.00000187,-0.00000056,0.00000600,-0.00
 001795,-0.00000396,-0.00000472,0.00000961,-0.00000476,0.00000416,0.000
 06014,0.00000224,-0.00000349,0.00000913,0.00000201,0.00000027,-0.00001
 976,0.00000816,0.00000391,-0.00002060,0.00000972,0.00018340,-0.0002355
 7,-0.00017099,-0.00010900,-0.00000141,-0.00028808,0.00050650,-0.003136
 65,0.00002487,-0.00001602,-0.00003975,-0.00000529,0.00003491,-0.000192
 17,-0.00018169,-0.00014956,0.00024192,0.00066387,-0.00130837,0.0056036
 5,0.00012295,0.00016768,-0.00049023,-0.00013311,-0.00099607,0.00743274
 ,0.00016463,-0.00078786,0.00470927,-0.01892298,-0.04258035,-0.04573190
 ,-0.00214603,-0.00370761,0.00315069,-0.00001713,0.00000278,0.00009033,
 -0.00002655,0.00000321,-0.00002317,-0.00000013,0.00000281,-0.00000407,
 0.00000117,-0.00000123,0.00000227,0.00000004,0.00000086,0.00000026,-0.
 00000030,-0.00000004,0.00000053,-0.00000030,0.00000004,0.00000089,0.00
 000016,0.00000029,0.00000062,0.00000002,-0.00000003,0.00000511,-0.0000
 0155,-0.00000020,0.00000009,0.00000170,0.00000031,0.00003039,-0.000074
 58,0.00008471,0.00128407,0.00000975,-0.00000097,0.00002382,0.00003445,
 -0.00005326,-0.00000240,-0.00000597,0.00016493,-0.00102675,0.00001675,
 -0.00003969,0.00012101,0.00001067,0.00096397,-0.00462279,0.02091071,0.
 04762983,0.03277342,-0.00000209,0.00003374,0.00000579,-0.00003537,-0.0
 0003339,-0.00000580,0.00002926,-0.00003728,-0.00000629,-0.00008077,0.0
 0024571,0.00004408,-0.00253560,-0.00195538,-0.00035717,-0.00044678,0.0
 0131658,0.00025229,0.00011120,-0.00002795,-0.00000347,0.00010508,-0.00
 001611,-0.00000093,0.00062771,-0.00052359,-0.00008776,-0.00151389,-0.0
 0266958,-0.00052142,-0.00051739,-0.00073480,-0.00012817,-0.00483910,-0
 .00192283,-0.00041029,-0.01254648,0.02789192,0.00469843,0.00091652,0.0
 0231213,0.00043653,0.00014817,-0.00039112,-0.00006635,0.00012519,0.000
 20470,0.00003718,0.00004925,-0.00012640,-0.00002176,-0.00002687,0.0000
 0250,0.00000029,-0.00001604,0.00009700,0.00001660,-0.00040993,-0.00021
 114,-0.00004041,-0.00015627,0.00153105,0.00026255,-0.11984789,0.113738
 19,0.01908042,0.01290054,-0.01291428,-0.00217310,0.00006630,0.00012523
 ,0.00002137,-0.00000307,0.00003917,0.00000685,0.00003210,0.00000522,0.
 00000082,0.00000955,0.00000227,0.00000044,0.00001252,-0.00000824,-0.00
 000132,-0.00000929,0.00002073,0.00000332,-0.00324902,-0.00021383,-0.00
 007043,-0.00002059,0.00001975,0.00000306,-0.00010341,-0.00021784,-0.00
 003792,-0.00000918,0.00007431,0.00001985,-0.00023187,-0.00131658,-0.00
 023083,-0.00000152,-0.00000742,-0.00000328,-0.00002920,-0.00000884,-0.
 00000181,-0.00000054,-0.00000894,-0.00000153,-0.00004961,-0.00000032,-
 0.00000010,0.00001857,0.00000511,0.00000091,0.13149612,-0.00003115,0.0
 0001077,0.00000080,-0.00000634,-0.00002441,0.00000140,-0.00006126,-0.0
 0001527,-0.00000448,-0.00008468,0.00083183,0.00019442,0.00076162,-0.00
 067802,-0.00011921,0.00177668,-0.00006547,0.00065820,-0.00013631,-0.00
 014609,-0.00001330,0.00008748,-0.00000430,0.00002551,0.00116045,-0.000
 60812,-0.00013869,-0.00427891,-0.00211534,-0.00154278,-0.00055669,0.00
 036127,0.00012325,-0.00035770,0.00134185,-0.00076751,-0.00083621,0.001
 58155,-0.00056132,-0.00243769,0.00054640,0.00078091,0.00033561,0.00014
 753,0.00003339,-0.00013849,0.00020139,0.00005392,0.00003440,-0.0000270
 6,-0.00001042,0.00001878,0.00004655,0.00000944,-0.00003867,-0.00001768
 ,-0.00000477,0.00006313,0.00000868,-0.00001888,-0.00030465,-0.00010423
 ,-0.00004821,0.11447171,-0.26599418,-0.03854120,0.01446446,-0.01877113
 ,-0.00392968,0.00007034,0.00012029,0.00000292,0.00017984,-0.00000862,0
 .00000215,0.00002522,0.00009773,0.00000948,0.00000793,0.00000326,0.000
 00011,0.00000873,-0.00000356,-0.00000020,-0.00001535,0.00002795,-0.000
 00004,-0.00008010,0.00170055,0.00006580,-0.00006143,0.00001975,-0.0000
 0186,-0.00018701,-0.00034347,-0.00004834,0.00007501,-0.00012703,0.0001
 4529,0.00031934,0.00035530,0.00003175,0.00006165,0.00001524,-0.0000439
 0,0.00000758,0.00000962,0.00000002,0.00000724,0.00000129,0.00000080,0.
 00000809,-0.00000538,0.00000665,-0.00001603,0.00000601,-0.00000166,-0.
 12434182,0.28161062,-0.00000544,0.00000127,0.00000503,-0.00000112,0.00
 000121,-0.00003260,-0.00001044,-0.00000431,0.00000723,-0.00001308,0.00
 019684,-0.00026157,0.00011288,-0.00013911,0.00002007,0.00033189,0.0006
 5483,-0.00367911,-0.00002222,-0.00001250,-0.00007733,0.00001699,0.0000
 2475,-0.00014363,0.00020358,-0.00015103,0.00021804,-0.00079984,-0.0015
 3100,0.00635046,-0.00009735,0.00012194,-0.00035431,-0.00013952,-0.0007
 7897,0.00562730,-0.00027163,-0.00035094,0.00472800,-0.00038521,0.00081
 569,-0.00393232,0.00005938,0.00002807,-0.00002599,-0.00002219,0.000056
 43,-0.00010653,0.00000606,-0.00001160,0.00003267,0.00000310,0.00000932
 ,-0.00000559,-0.00000687,-0.00000377,0.00000754,0.00000704,-0.00002089
 ,0.00011695,-0.00005503,-0.00003477,0.00015514,0.01920732,-0.03854657,
 -0.04489941,0.00256351,-0.00413017,0.00385984,0.00001188,0.00000332,0.
 00010705,0.00003119,0.00000112,-0.00001299,0.00000428,0.00000934,0.000
 04562,0.00000142,0.00000007,0.00000295,0.00000162,-0.00000032,-0.00000
 208,-0.00000292,0.00000023,0.00002753,-0.00004729,0.00006482,0.0013276
 9,-0.00001098,-0.00000127,0.00002761,-0.00003258,-0.00004857,-0.000080
 60,0.00001997,0.00014529,-0.00093841,0.00005219,0.00001977,0.00018909,
 0.00000867,-0.00004441,0.00026398,0.00000103,-0.00000010,0.00000982,0.
 00000127,0.00000068,-0.00000291,0.00000136,0.00000659,-0.00004235,-0.0
 0000275,-0.00000150,0.00001463,-0.02072465,0.04364964,0.03144178,0.000
 10914,-0.00045836,-0.00007792,0.00025802,0.00017771,0.00003401,0.00043
 021,0.00071762,0.00012645,-0.00178612,0.00244594,0.00037043,-0.0005546
 3,0.00063218,0.00010834,-0.00485614,0.00175101,0.00022090,-0.01003533,
 -0.02808863,-0.00496567,0.00104996,-0.00233179,-0.00036206,0.00010591,
 0.00043196,0.00007554,0.00015074,-0.00023210,-0.00003827,0.00004626,0.
 00014117,0.00002457,-0.00001980,-0.00002325,-0.00000408,-0.00000723,-0
 .00010706,-0.00001853,-0.00004392,0.00002826,0.00000499,-0.00000852,-0
 .00000868,-0.00000155,-0.00000732,-0.00000808,-0.00000143,0.00000166,0
 .00000981,0.00000171,-0.00001120,-0.00000106,-0.00000026,0.00000193,-0
 .00000116,-0.00000018,-0.00001662,-0.00000949,-0.00000175,0.00002800,0
 .00001644,0.00000306,-0.00043453,0.00020819,0.00003192,-0.00006541,-0.
 00157514,-0.00027493,-0.11141004,-0.10645643,-0.01896234,0.01051851,0.
 01556420,0.00273834,0.00103447,0.00143938,0.00028273,0.00002496,-0.000
 03209,-0.00000697,-0.00001826,-0.00003231,-0.00000605,-0.00013746,0.00
 021024,0.00003392,0.00000569,-0.00008664,-0.00000744,-0.00026997,0.001
 22753,0.00020900,-0.00001422,0.00000812,-0.00000097,-0.00003015,0.0000
 0844,0.00000114,0.00000435,0.00000193,0.00000035,-0.00000804,-0.000001
 96,-0.00000050,-0.00000066,-0.00000186,-0.00000033,-0.00000212,0.00000
 024,0.00000002,-0.00000350,0.00000221,0.00000035,0.00000213,0.00000169
 ,0.00000029,0.00002500,-0.00000400,-0.00000059,0.11615474,0.00029752,0
 .00007483,0.00002880,0.00005141,0.00014596,0.00005819,-0.00122149,-0.0
 0069537,-0.00014943,0.00425618,-0.00164960,-0.00119074,0.00059701,0.00
 037758,0.00014128,0.00004312,0.00154601,-0.00083006,0.00034507,0.00054
 999,-0.00067626,0.00218462,0.00043207,0.00088588,-0.00035166,0.0001663
 7,0.00002708,0.00013786,0.00017812,0.00005031,-0.00005262,-0.00001979,
 -0.00000826,0.00000127,0.00004062,0.00000899,0.00005607,-0.00000672,0.
 00000028,-0.00002029,0.00000823,0.00001132,0.00000561,-0.00000962,-0.0
 0000127,-0.00001186,0.00000371,0.00000109,0.00000604,0.00000871,0.0000
 0149,-0.00001007,0.00000542,0.00000110,-0.00000562,-0.00000603,-0.0000
 0089,-0.00000767,-0.00000964,-0.00000145,0.00000339,0.00000243,0.00000
 072,-0.00009282,0.00000866,-0.00002078,0.00031714,-0.00014920,-0.00006
 940,-0.10713878,-0.27072926,-0.04122366,-0.01311249,-0.01872776,-0.004
 07640,-0.00220756,0.00093390,0.00076284,0.00004118,-0.00002395,-0.0000
 4175,0.00006151,0.00003446,-0.00000122,0.00020519,-0.00031703,-0.00008
 752,-0.00006874,-0.00014413,0.00015189,-0.00035095,0.00039932,0.000033
 61,-0.00007134,0.00001308,-0.00005185,-0.00000965,0.00000860,-0.000000
 86,0.00000347,0.00000074,-0.00000013,-0.00000431,-0.00000200,-0.000002
 71,-0.00000112,-0.00000309,-0.00000072,-0.00000346,0.00000010,-0.00000
 010,-0.00000327,0.00000299,0.00000029,0.00000395,-0.00000046,-0.000000
 35,0.00001580,0.00000872,-0.00000028,0.11493768,0.28722133,0.00005285,
 0.00002326,-0.00007461,0.00001216,0.00005911,-0.00017790,-0.00020903,-
 0.00013523,0.00009173,0.00068361,-0.00120400,0.00521005,0.00010225,0.0
 0014153,-0.00038853,-0.00007457,-0.00081756,0.00620381,-0.00004655,-0.
 00088448,0.00432018,0.00041929,0.00085281,-0.00444547,-0.00006003,0.00
 003282,0.00000020,0.00002574,0.00004760,-0.00009841,-0.00000895,-0.000
 00684,0.00002446,0.00000016,0.00000881,-0.00000976,0.00000969,-0.00000
 092,-0.00000603,-0.00000341,0.00001168,-0.00005609,0.00000092,-0.00000
 137,-0.00000229,-0.00000208,0.00000112,-0.00000293,0.00000105,0.000001
 52,0.00000061,-0.00000181,0.00000116,-0.00000116,-0.00000095,-0.000000
 86,-0.00000128,-0.00000144,-0.00000146,-0.00000185,0.00000080,0.000000
 81,-0.00000142,-0.00002015,-0.00001857,0.00012147,0.00005244,-0.000083
 26,0.00025135,-0.01908039,-0.04121866,-0.04425231,-0.00222282,-0.00386
 640,0.00359459,-0.00034821,0.00078955,-0.00343491,0.00000570,-0.000042
 28,0.00021182,0.00001018,-0.00000190,0.00004384,0.00003305,-0.00008749
 ,0.00018267,-0.00000434,0.00015176,-0.00099877,-0.00006409,0.00004517,
 0.00019755,-0.00001472,-0.00005127,0.00030081,-0.00000199,-0.00000073,
 0.00001301,0.00000062,-0.00000015,0.00000164,-0.00000090,-0.00000269,0
 .00001301,-0.00000021,-0.00000072,0.00000088,-0.00000062,-0.00000007,0
 .00000052,-0.00000060,0.00000033,0.00000121,0.00000069,-0.00000037,0.0
 0000170,0.00000284,-0.00000042,0.00001094,0.02055330,0.04623500,0.0329
 8635,0.01148110,0.01675788,0.00294858,-0.00136037,0.00262273,0.0003840
 4,-0.00056665,0.00068999,0.00011915,-0.00505241,0.00182973,0.00024438,
 -0.00008983,-0.00160499,-0.00027952,0.00016076,-0.00008294,-0.00001196
 ,0.00016143,0.00040565,0.00007251,-0.00000443,-0.00004543,-0.00000923,
 -0.00001999,-0.00001883,-0.00000336,-0.00005084,-0.00002576,-0.0000048
 6,0.00000654,0.00001760,0.00000309,-0.00002248,-0.00001364,-0.00000248
 ,0.00000520,0.00003660,0.00000635,0.00000124,0.00000304,0.00000054,-0.
 00000263,0.00000390,0.00000067,-0.00000452,-0.00000327,-0.00000060,0.0
 0000061,0.00000447,0.00000078,-0.00000542,-0.00000078,-0.00000017,0.00
 000103,-0.00000100,-0.00000016,-0.00000741,-0.00000357,-0.00000066,0.0
 0001199,0.00000633,0.00000118,-0.00001366,-0.00002673,-0.00000466,0.00
 006651,0.00008105,0.00001420,0.00147942,-0.00186358,-0.00029032,-0.009
 69054,-0.02795458,-0.00493432,-0.11446266,-0.10965180,-0.01953432,0.00
 102706,-0.00056051,-0.00005101,0.00036775,0.00078945,0.00013777,0.0000
 5919,-0.00008337,-0.00000556,-0.00045229,-0.00003455,-0.00001071,-0.00
 001780,0.00003957,0.00000668,-0.00000045,0.00000351,0.00000077,-0.0000
 0644,0.00000279,0.00000043,0.00000198,0.00000194,0.00000034,-0.0000015
 3,-0.00000092,-0.00000018,-0.00000044,-0.00000096,-0.00000017,-0.00000
 100,0.00000006,0.,-0.00000150,0.00000105,0.00000016,0.00000100,0.00000
 063,0.00000011,0.00000870,0.00002919,0.00000511,-0.00021054,0.00117468
 ,0.00020048,0.11720432,-0.01436584,-0.01809443,-0.00405442,0.00420268,
 -0.00185815,-0.00170206,0.00051771,0.00046556,0.00017719,0.00015332,0.
 00141168,-0.00058544,0.00034465,-0.00015410,-0.00005233,0.00004184,0.0
 0027957,0.00007735,-0.00039879,0.00011073,0.00004341,0.00001603,-0.000
 10870,-0.00005021,-0.00006774,0.00001005,0.00000222,0.00000985,0.00003
 591,0.00000556,-0.00003033,-0.00002551,-0.00000471,0.00000230,0.000020
 63,0.00000452,0.00003038,0.00000555,0.00000071,-0.00001315,0.00001124,
 0.00000187,0.00000202,-0.00000977,-0.00000145,-0.00000763,-0.00000087,
 -0.00000026,0.00000410,0.00000889,0.00000164,-0.00000769,0.00000369,0.
 00000068,-0.00000426,-0.00000387,-0.00000058,-0.00000761,-0.00000684,-
 0.00000090,0.00000717,-0.00000162,-0.00000034,-0.00002926,-0.00001306,
 -0.00000096,0.00007152,0.00002483,-0.00000248,0.00156295,0.00056486,0.
 00061128,0.00090296,0.00113754,-0.00043745,-0.10922705,-0.27070638,-0.
 04115976,0.00010646,0.00092815,0.00106959,-0.00066235,-0.00090028,-0.0
 0019597,-0.00009485,-0.00010169,0.00018081,-0.00002285,0.00000094,-0.0
 0003352,0.00000594,0.00001599,0.00000198,-0.00001431,0.00000337,0.0000
 0435,-0.00000373,0.00000499,0.00000065,0.00000295,-0.00000064,-0.00000
 031,-0.00000362,-0.00000226,-0.00000057,-0.00000103,-0.00000315,-0.000
 00063,-0.00000369,0.00000004,-0.00000009,-0.00000288,0.00000293,0.0000
 0035,0.00000377,-0.00000091,-0.00000030,0.00000653,0.00000522,0.000000
 85,-0.00050187,0.00032170,0.00002365,0.11747540,0.28661820,-0.00243592
 ,-0.00382651,0.00405320,0.00065737,-0.00171363,0.00786641,0.00008935,0
 .00017845,-0.00050519,-0.00004564,-0.00057316,0.00470264,0.00005777,-0
 .00006660,0.00015185,0.00000963,0.00007644,-0.00015247,-0.00006666,0.0
 0004930,-0.00014904,0.00000141,-0.00005066,0.00017346,-0.00001182,0.00
 000258,-0.00000530,0.00000130,0.00000530,0.00000513,-0.00000520,-0.000
 00436,-0.00000038,0.00000027,0.00000441,-0.00000465,0.00000527,0.00000
 076,0.00000287,-0.00000226,0.00000199,0.00000018,0.00000034,-0.0000014
 4,-0.00000154,-0.00000136,-0.00000023,0.00000027,0.00000072,0.00000164
 ,-0.00000014,-0.00000137,0.00000073,-0.00000046,-0.00000072,-0.0000005
 6,-0.00000078,-0.00000136,-0.00000087,-0.00000214,0.00000132,-0.000000
 34,0.00000059,-0.00000510,-0.00000094,-0.00000895,0.00001255,-0.000002
 41,0.00004188,0.00030248,0.00058619,-0.00279871,0.00005812,-0.00064877
 ,0.00359252,-0.01946083,-0.04116287,-0.04468032,0.00006438,0.00106471,
 -0.00506518,-0.00011339,-0.00018534,0.00017153,-0.00000755,0.00018089,
 -0.00111958,-0.00000868,-0.00003361,0.00018787,0.00000086,0.00000222,0
 .00000521,-0.00000232,0.00000448,-0.00002161,-0.00000070,0.00000069,0.
 00000121,0.00000052,-0.00000032,0.00000122,-0.00000064,-0.00000056,0.0
 0000081,-0.00000019,-0.00000063,0.00000036,-0.00000065,-0.00000006,0.0
 0000040,-0.00000051,0.00000038,0.00000086,0.00000065,-0.00000033,0.000
 00095,0.00000119,0.00000102,0.00000077,-0.00008957,0.00003593,0.000169
 29,0.02099692,0.04607608,0.03338497\\-0.00002663,0.00001702,0.00000275
 ,-0.00003914,0.00001777,0.00000279,-0.00001125,-0.00007090,-0.00001235
 ,0.00004161,0.00018374,0.00003209,-0.00001432,-0.00003739,-0.00000657,
 0.00000127,0.00005265,0.00000912,-0.00015613,-0.00015357,-0.00002771,0
 .00010748,0.00001660,0.00000366,-0.00010429,0.00002895,0.00000424,0.00
 011283,-0.00012162,-0.00002021,-0.00005239,0.00005570,0.00000925,0.000
 01702,-0.00001426,-0.00000234,-0.00007610,0.00011484,0.00001931,0.0000
 7634,-0.00003662,-0.00000578,-0.00006350,-0.00002945,-0.00000556,0.000
 09241,0.00008538,0.00001545,-0.00004380,-0.00005631,-0.00001006,0.0000
 1403,-0.00002082,-0.00000350,0.00005194,-0.00000935,-0.00000124,-0.000
 02352,-0.00000591,-0.00000119,0.00001085,-0.00000507,-0.00000080,0.000
 01715,-0.00007301,-0.00001250,0.00003588,0.00003701,0.00000667,0.00008
 200,0.00013364,0.00002372,-0.00009982,-0.00016991,-0.00003013,0.000046
 00,0.00005271,0.00000946,0.00001258,-0.00001208,-0.00000200,0.00001669
 ,-0.00000571,-0.00000087,0.00002735,0.00000372,0.00000084,-0.00001328,
 0.00002299,0.00000388,-0.00002403,0.00000236,0.00000023,0.00002582,0.0
 0000120,0.00000040,-0.00000789,-0.00002545,-0.00000446,-0.00002490,0.0
 0000012,-0.00000016,0.00002309,-0.00000162,-0.00000011,-0.00001462,0.0
 0002222,0.00000374,-0.00001489,0.00000591,0.00000091,-0.00000693,0.000
 00978,0.00000164,-0.00000099,0.00000988,0.00000170,0.00000864,0.000028
 03,0.00000491,-0.00001440,-0.00003100,-0.00000547,0.00001185,-0.000022
 18,-0.00000375\\\@
 The archive entry for this job was punched.


 CONFIDENCE: THAT QUIET ASSURED FEELING YOU HAVE
 JUST BEFORE YOU FALL FLAT ON YOUR FACE.
 Job cpu time:       0 days  1 hours 21 minutes 43.1 seconds.
 Elapsed time:       0 days  0 hours 10 minutes 13.0 seconds.
 File lengths (MBytes):  RWF=    772 Int=      0 D2E=      0 Chk=     15 Scr=      1
 Normal termination of Gaussian 16 at Tue Oct  8 21:16:04 2024.
