 Entering Gaussian System, Link 0=g16
 Initial command:
 /opt/g16/l1.exe "/tmp/g16/scratch/Gau-1620578.inp" -scrdir="/tmp/g16/scratch/"
 Entering Link 1 = /opt/g16/l1.exe PID=   1620580.
  
 Copyright (c) 1988-2019, Gaussian, Inc.  All Rights Reserved.
  
 This is part of the Gaussian(R) 16 program.  It is based on
 the Gaussian(R) 09 system (copyright 2009, Gaussian, Inc.),
 the Gaussian(R) 03 system (copyright 2003, Gaussian, Inc.),
 the Gaussian(R) 98 system (copyright 1998, Gaussian, Inc.),
 the Gaussian(R) 94 system (copyright 1995, Gaussian, Inc.),
 the Gaussian 92(TM) system (copyright 1992, Gaussian, Inc.),
 the Gaussian 90(TM) system (copyright 1990, Gaussian, Inc.),
 the Gaussian 88(TM) system (copyright 1988, Gaussian, Inc.),
 the Gaussian 86(TM) system (copyright 1986, Carnegie Mellon
 University), and the Gaussian 82(TM) system (copyright 1983,
 Carnegie Mellon University). Gaussian is a federally registered
 trademark of Gaussian, Inc.
  
 This software contains proprietary and confidential information,
 including trade secrets, belonging to Gaussian, Inc.
  
 This software is provided under written license and may be
 used, copied, transmitted, or stored only in accord with that
 written license.
  
 The following legend is applicable only to US Government
 contracts under FAR:
  
                    RESTRICTED RIGHTS LEGEND
  
 Use, reproduction and disclosure by the US Government is
 subject to restrictions as set forth in subparagraphs (a)
 and (c) of the Commercial Computer Software - Restricted
 Rights clause in FAR 52.227-19.
  
 Gaussian, Inc.
 340 Quinnipiac St., Bldg. 40, Wallingford CT 06492
  
  
 ---------------------------------------------------------------
 Warning -- This program may not be used in any manner that
 competes with the business of Gaussian, Inc. or will provide
 assistance to any competitor of Gaussian, Inc.  The licensee
 of this program is prohibited from giving any competitor of
 Gaussian, Inc. access to this program.  By using this program,
 the user acknowledges that Gaussian, Inc. is engaged in the
 business of creating and licensing software in the field of
 computational chemistry and represents and warrants to the
 licensee that it is not a competitor of Gaussian, Inc. and that
 it will not use this program in any manner prohibited above.
 ---------------------------------------------------------------
  

 Cite this work as:
 Gaussian 16, Revision C.01,
 M. J. Frisch, G. W. Trucks, H. B. Schlegel, G. E. Scuseria, 
 M. A. Robb, J. R. Cheeseman, G. Scalmani, V. Barone, 
 G. A. Petersson, H. Nakatsuji, X. Li, M. Caricato, A. V. Marenich, 
 J. Bloino, B. G. Janesko, R. Gomperts, B. Mennucci, H. P. Hratchian, 
 J. V. Ortiz, A. F. Izmaylov, J. L. Sonnenberg, D. Williams-Young, 
 F. Ding, F. Lipparini, F. Egidi, J. Goings, B. Peng, A. Petrone, 
 T. Henderson, D. Ranasinghe, V. G. Zakrzewski, J. Gao, N. Rega, 
 G. Zheng, W. Liang, M. Hada, M. Ehara, K. Toyota, R. Fukuda, 
 J. Hasegawa, M. Ishida, T. Nakajima, Y. Honda, O. Kitao, H. Nakai, 
 T. Vreven, K. Throssell, J. A. Montgomery, Jr., J. E. Peralta, 
 F. Ogliaro, M. J. Bearpark, J. J. Heyd, E. N. Brothers, K. N. Kudin, 
 V. N. Staroverov, T. A. Keith, R. Kobayashi, J. Normand, 
 K. Raghavachari, A. P. Rendell, J. C. Burant, S. S. Iyengar, 
 J. Tomasi, M. Cossi, J. M. Millam, M. Klene, C. Adamo, R. Cammi, 
 J. W. Ochterski, R. L. Martin, K. Morokuma, O. Farkas, 
 J. B. Foresman, and D. J. Fox, Gaussian, Inc., Wallingford CT, 2019.
 
 ******************************************
 Gaussian 16:  ES64L-G16RevC.01  3-Jul-2019
                11-Jul-2024 
 ******************************************
 %nprocshared=16
 Will use up to   16 processors via shared memory.
 %mem=2880MB
 ----------------------------------------------------------------------
 #N opt freq B3LYP/def2SVPP symm=veryloose em=gd3bj scale=0.961 press=0
 .987
 ----------------------------------------------------------------------
 1/18=20,19=15,26=3,38=1,113=-987000,114=961000/1,3;
 2/9=110,12=2,17=2,18=2,40=1/2;
 3/5=43,7=202,11=2,25=1,30=1,71=1,74=-5,124=41/1,2,3;
 4//1;
 5/5=2,38=5/2;
 6/7=2,8=2,9=2,10=2,28=1/1;
 7//1,2,3,16;
 1/18=20,19=15,26=3/3(2);
 2/9=110/2;
 99//99;
 2/9=110/2;
 3/5=43,7=202,11=2,25=1,30=1,71=1,74=-5,124=41/1,2,3;
 4/5=5,16=3,69=1/1;
 5/5=2,38=5/2;
 7//1,2,3,16;
 1/18=20,19=15,26=3/3(-5);
 2/9=110/2;
 6/7=2,8=2,9=2,10=2,19=2,28=1/1;
 99/9=1/99;
 ----------------------------
 c1ccc2cc3cc4ccccc4cc3cc2c1_1
 ----------------------------
 Symbolic Z-matrix:
 Charge =  0 Multiplicity = 1
 C                     4.8853    0.6907    0.09332 
 C                     4.88453  -0.69991   0.05347 
 C                     3.67506  -1.39376  -0.0146 
 C                     2.45084  -0.70459  -0.03649 
 C                     1.22509  -1.38912  -0.07027 
 C                    -0.00001  -0.70092  -0.06308 
 C                    -1.22449  -1.38957  -0.0411 
 C                    -2.45039  -0.70511  -0.00858 
 C                    -3.67232  -1.39502   0.05998 
 C                    -4.88278  -0.702     0.09564 
 C                    -4.88836   0.6884    0.04468 
 C                    -3.68223   1.38813  -0.02201 
 C                    -2.45397   0.70553  -0.03565 
 C                    -1.22849   1.39336  -0.0633 
 C                    -0.00032   0.70718  -0.05889 
 C                     1.22635   1.39459  -0.03801 
 C                     2.45195   0.70553  -0.00976 
 C                     3.67743   1.38979   0.05477 
 H                     5.82507   1.23269   0.15734 
 H                     5.82356  -1.24658   0.07976 
 H                     3.69491  -2.48107  -0.04107 
 H                     1.22484  -2.47756  -0.08562 
 H                    -1.22348  -2.47803  -0.03214 
 H                    -3.6884   -2.48209   0.09633 
 H                    -5.81969  -1.24888   0.16344 
 H                    -5.83055   1.22967   0.06175 
 H                    -3.70746   2.47482  -0.05725 
 H                    -1.23065   2.48169  -0.07039 
 H                     1.22709   2.48226  -0.02556 
 H                     3.69946   2.47712   0.0858 
 

 GradGradGradGradGradGradGradGradGradGradGradGradGradGradGradGradGradGrad
 Berny optimization.
 Initialization pass.
                           ----------------------------
                           !    Initial Parameters    !
                           ! (Angstroms and Degrees)  !
 --------------------------                            --------------------------
 ! Name  Definition              Value          Derivative Info.                !
 --------------------------------------------------------------------------------
 ! R1    R(1,2)                  1.3912         estimate D2E/DX2                !
 ! R2    R(1,18)                 1.3961         estimate D2E/DX2                !
 ! R3    R(1,19)                 1.0867         estimate D2E/DX2                !
 ! R4    R(2,3)                  1.396          estimate D2E/DX2                !
 ! R5    R(2,20)                 1.0869         estimate D2E/DX2                !
 ! R6    R(3,4)                  1.405          estimate D2E/DX2                !
 ! R7    R(3,21)                 1.0878         estimate D2E/DX2                !
 ! R8    R(4,5)                  1.4043         estimate D2E/DX2                !
 ! R9    R(4,17)                 1.4104         estimate D2E/DX2                !
 ! R10   R(5,6)                  1.4052         estimate D2E/DX2                !
 ! R11   R(5,22)                 1.0885         estimate D2E/DX2                !
 ! R12   R(6,7)                  1.405          estimate D2E/DX2                !
 ! R13   R(6,15)                 1.4081         estimate D2E/DX2                !
 ! R14   R(7,8)                  1.4044         estimate D2E/DX2                !
 ! R15   R(7,23)                 1.0885         estimate D2E/DX2                !
 ! R16   R(8,9)                  1.4049         estimate D2E/DX2                !
 ! R17   R(8,13)                 1.4109         estimate D2E/DX2                !
 ! R18   R(9,10)                 1.3953         estimate D2E/DX2                !
 ! R19   R(9,24)                 1.0878         estimate D2E/DX2                !
 ! R20   R(10,11)                1.3913         estimate D2E/DX2                !
 ! R21   R(10,25)                1.087          estimate D2E/DX2                !
 ! R22   R(11,12)                1.396          estimate D2E/DX2                !
 ! R23   R(11,26)                1.0867         estimate D2E/DX2                !
 ! R24   R(12,13)                1.4053         estimate D2E/DX2                !
 ! R25   R(12,27)                1.0876         estimate D2E/DX2                !
 ! R26   R(13,14)                1.4056         estimate D2E/DX2                !
 ! R27   R(14,15)                1.4069         estimate D2E/DX2                !
 ! R28   R(14,28)                1.0884         estimate D2E/DX2                !
 ! R29   R(15,16)                1.4063         estimate D2E/DX2                !
 ! R30   R(16,17)                1.4063         estimate D2E/DX2                !
 ! R31   R(16,29)                1.0877         estimate D2E/DX2                !
 ! R32   R(17,18)                1.4051         estimate D2E/DX2                !
 ! R33   R(18,30)                1.088          estimate D2E/DX2                !
 ! A1    A(2,1,18)             119.9511         estimate D2E/DX2                !
 ! A2    A(2,1,19)             120.0455         estimate D2E/DX2                !
 ! A3    A(18,1,19)            120.0031         estimate D2E/DX2                !
 ! A4    A(1,2,3)              119.9135         estimate D2E/DX2                !
 ! A5    A(1,2,20)             120.1054         estimate D2E/DX2                !
 ! A6    A(3,2,20)             119.9806         estimate D2E/DX2                !
 ! A7    A(2,3,4)              120.7867         estimate D2E/DX2                !
 ! A8    A(2,3,21)             118.827          estimate D2E/DX2                !
 ! A9    A(4,3,21)             120.3838         estimate D2E/DX2                !
 ! A10   A(3,4,5)              121.4521         estimate D2E/DX2                !
 ! A11   A(3,4,17)             119.303          estimate D2E/DX2                !
 ! A12   A(5,4,17)             119.2415         estimate D2E/DX2                !
 ! A13   A(4,5,6)              121.4745         estimate D2E/DX2                !
 ! A14   A(4,5,22)             119.2045         estimate D2E/DX2                !
 ! A15   A(6,5,22)             119.3131         estimate D2E/DX2                !
 ! A16   A(5,6,7)              121.3221         estimate D2E/DX2                !
 ! A17   A(5,6,15)             119.3382         estimate D2E/DX2                !
 ! A18   A(7,6,15)             119.3337         estimate D2E/DX2                !
 ! A19   A(6,7,8)              121.4811         estimate D2E/DX2                !
 ! A20   A(6,7,23)             119.3038         estimate D2E/DX2                !
 ! A21   A(8,7,23)             119.207          estimate D2E/DX2                !
 ! A22   A(7,8,9)              121.3994         estimate D2E/DX2                !
 ! A23   A(7,8,13)             119.2777         estimate D2E/DX2                !
 ! A24   A(9,8,13)             119.3213         estimate D2E/DX2                !
 ! A25   A(8,9,10)             120.7898         estimate D2E/DX2                !
 ! A26   A(8,9,24)             120.3465         estimate D2E/DX2                !
 ! A27   A(10,9,24)            118.8609         estimate D2E/DX2                !
 ! A28   A(9,10,11)            119.9273         estimate D2E/DX2                !
 ! A29   A(9,10,25)            119.9658         estimate D2E/DX2                !
 ! A30   A(11,10,25)           120.1069         estimate D2E/DX2                !
 ! A31   A(10,11,12)           119.946          estimate D2E/DX2                !
 ! A32   A(10,11,26)           120.042          estimate D2E/DX2                !
 ! A33   A(12,11,26)           120.0113         estimate D2E/DX2                !
 ! A34   A(11,12,13)           120.8074         estimate D2E/DX2                !
 ! A35   A(11,12,27)           118.8387         estimate D2E/DX2                !
 ! A36   A(13,12,27)           120.3528         estimate D2E/DX2                !
 ! A37   A(8,13,12)            119.1887         estimate D2E/DX2                !
 ! A38   A(8,13,14)            119.1716         estimate D2E/DX2                !
 ! A39   A(12,13,14)           121.6371         estimate D2E/DX2                !
 ! A40   A(13,14,15)           121.4924         estimate D2E/DX2                !
 ! A41   A(13,14,28)           119.1922         estimate D2E/DX2                !
 ! A42   A(15,14,28)           119.3064         estimate D2E/DX2                !
 ! A43   A(6,15,14)            119.2038         estimate D2E/DX2                !
 ! A44   A(6,15,16)            119.2523         estimate D2E/DX2                !
 ! A45   A(14,15,16)           121.5412         estimate D2E/DX2                !
 ! A46   A(15,16,17)           121.3977         estimate D2E/DX2                !
 ! A47   A(15,16,29)           119.3102         estimate D2E/DX2                !
 ! A48   A(17,16,29)           119.283          estimate D2E/DX2                !
 ! A49   A(4,17,16)            119.2633         estimate D2E/DX2                !
 ! A50   A(4,17,18)            119.24           estimate D2E/DX2                !
 ! A51   A(16,17,18)           121.4949         estimate D2E/DX2                !
 ! A52   A(1,18,17)            120.7969         estimate D2E/DX2                !
 ! A53   A(1,18,30)            118.8242         estimate D2E/DX2                !
 ! A54   A(17,18,30)           120.3759         estimate D2E/DX2                !
 ! D1    D(18,1,2,3)            -0.4934         estimate D2E/DX2                !
 ! D2    D(18,1,2,20)          179.7817         estimate D2E/DX2                !
 ! D3    D(19,1,2,3)           179.328          estimate D2E/DX2                !
 ! D4    D(19,1,2,20)           -0.397          estimate D2E/DX2                !
 ! D5    D(2,1,18,17)            0.6863         estimate D2E/DX2                !
 ! D6    D(2,1,18,30)         -179.9299         estimate D2E/DX2                !
 ! D7    D(19,1,18,17)        -179.1352         estimate D2E/DX2                !
 ! D8    D(19,1,18,30)           0.2486         estimate D2E/DX2                !
 ! D9    D(1,2,3,4)             -0.3397         estimate D2E/DX2                !
 ! D10   D(1,2,3,21)          -179.7674         estimate D2E/DX2                !
 ! D11   D(20,2,3,4)           179.3855         estimate D2E/DX2                !
 ! D12   D(20,2,3,21)           -0.0421         estimate D2E/DX2                !
 ! D13   D(2,3,4,5)           -178.3482         estimate D2E/DX2                !
 ! D14   D(2,3,4,17)             0.9748         estimate D2E/DX2                !
 ! D15   D(21,3,4,5)             1.0705         estimate D2E/DX2                !
 ! D16   D(21,3,4,17)         -179.6064         estimate D2E/DX2                !
 ! D17   D(3,4,5,6)            178.6086         estimate D2E/DX2                !
 ! D18   D(3,4,5,22)            -0.3587         estimate D2E/DX2                !
 ! D19   D(17,4,5,6)            -0.7148         estimate D2E/DX2                !
 ! D20   D(17,4,5,22)         -179.6822         estimate D2E/DX2                !
 ! D21   D(3,4,17,16)          179.7051         estimate D2E/DX2                !
 ! D22   D(3,4,17,18)           -0.7754         estimate D2E/DX2                !
 ! D23   D(5,4,17,16)           -0.9567         estimate D2E/DX2                !
 ! D24   D(5,4,17,18)          178.5628         estimate D2E/DX2                !
 ! D25   D(4,5,6,7)           -177.3334         estimate D2E/DX2                !
 ! D26   D(4,5,6,15)             1.7649         estimate D2E/DX2                !
 ! D27   D(22,5,6,7)             1.6329         estimate D2E/DX2                !
 ! D28   D(22,5,6,15)         -179.2688         estimate D2E/DX2                !
 ! D29   D(5,6,7,8)            178.7907         estimate D2E/DX2                !
 ! D30   D(5,6,7,23)            -0.1645         estimate D2E/DX2                !
 ! D31   D(15,6,7,8)            -0.3076         estimate D2E/DX2                !
 ! D32   D(15,6,7,23)         -179.2629         estimate D2E/DX2                !
 ! D33   D(5,6,15,14)          179.4585         estimate D2E/DX2                !
 ! D34   D(5,6,15,16)           -1.1201         estimate D2E/DX2                !
 ! D35   D(7,6,15,14)           -1.4251         estimate D2E/DX2                !
 ! D36   D(7,6,15,16)          177.9964         estimate D2E/DX2                !
 ! D37   D(6,7,8,9)           -177.7713         estimate D2E/DX2                !
 ! D38   D(6,7,8,13)             1.7664         estimate D2E/DX2                !
 ! D39   D(23,7,8,9)             1.1849         estimate D2E/DX2                !
 ! D40   D(23,7,8,13)         -179.2774         estimate D2E/DX2                !
 ! D41   D(7,8,9,10)           179.8089         estimate D2E/DX2                !
 ! D42   D(7,8,9,24)             0.4299         estimate D2E/DX2                !
 ! D43   D(13,8,9,10)            0.2714         estimate D2E/DX2                !
 ! D44   D(13,8,9,24)         -179.1077         estimate D2E/DX2                !
 ! D45   D(7,8,13,12)          179.1132         estimate D2E/DX2                !
 ! D46   D(7,8,13,14)           -1.4609         estimate D2E/DX2                !
 ! D47   D(9,8,13,12)           -1.3394         estimate D2E/DX2                !
 ! D48   D(9,8,13,14)          178.0865         estimate D2E/DX2                !
 ! D49   D(8,9,10,11)            0.8835         estimate D2E/DX2                !
 ! D50   D(8,9,10,25)         -179.0998         estimate D2E/DX2                !
 ! D51   D(24,9,10,11)        -179.7283         estimate D2E/DX2                !
 ! D52   D(24,9,10,25)           0.2884         estimate D2E/DX2                !
 ! D53   D(9,10,11,12)          -0.9493         estimate D2E/DX2                !
 ! D54   D(9,10,11,26)         179.3545         estimate D2E/DX2                !
 ! D55   D(25,10,11,12)        179.034          estimate D2E/DX2                !
 ! D56   D(25,10,11,26)         -0.6622         estimate D2E/DX2                !
 ! D57   D(10,11,12,13)         -0.1398         estimate D2E/DX2                !
 ! D58   D(10,11,12,27)       -179.7669         estimate D2E/DX2                !
 ! D59   D(26,11,12,13)        179.5565         estimate D2E/DX2                !
 ! D60   D(26,11,12,27)         -0.0706         estimate D2E/DX2                !
 ! D61   D(11,12,13,8)           1.2864         estimate D2E/DX2                !
 ! D62   D(11,12,13,14)       -178.1248         estimate D2E/DX2                !
 ! D63   D(27,12,13,8)        -179.0921         estimate D2E/DX2                !
 ! D64   D(27,12,13,14)          1.4967         estimate D2E/DX2                !
 ! D65   D(8,13,14,15)          -0.2714         estimate D2E/DX2                !
 ! D66   D(8,13,14,28)        -179.1679         estimate D2E/DX2                !
 ! D67   D(12,13,14,15)        179.1399         estimate D2E/DX2                !
 ! D68   D(12,13,14,28)          0.2434         estimate D2E/DX2                !
 ! D69   D(13,14,15,6)           1.7277         estimate D2E/DX2                !
 ! D70   D(13,14,15,16)       -177.6801         estimate D2E/DX2                !
 ! D71   D(28,14,15,6)        -179.3771         estimate D2E/DX2                !
 ! D72   D(28,14,15,16)          1.2152         estimate D2E/DX2                !
 ! D73   D(6,15,16,17)          -0.5482         estimate D2E/DX2                !
 ! D74   D(6,15,16,29)        -179.4444         estimate D2E/DX2                !
 ! D75   D(14,15,16,17)        178.8592         estimate D2E/DX2                !
 ! D76   D(14,15,16,29)         -0.0369         estimate D2E/DX2                !
 ! D77   D(15,16,17,4)           1.5962         estimate D2E/DX2                !
 ! D78   D(15,16,17,18)       -177.9122         estimate D2E/DX2                !
 ! D79   D(29,16,17,4)        -179.5073         estimate D2E/DX2                !
 ! D80   D(29,16,17,18)          0.9843         estimate D2E/DX2                !
 ! D81   D(4,17,18,1)           -0.0448         estimate D2E/DX2                !
 ! D82   D(4,17,18,30)        -179.419          estimate D2E/DX2                !
 ! D83   D(16,17,18,1)         179.4637         estimate D2E/DX2                !
 ! D84   D(16,17,18,30)          0.0894         estimate D2E/DX2                !
 --------------------------------------------------------------------------------
 Trust Radius=3.00D-01 FncErr=1.00D-07 GrdErr=1.00D-06 EigMax=2.50D+02 EigMin=1.00D-04
 Number of steps in this run=    180 maximum allowed number of steps=    180.
 GradGradGradGradGradGradGradGradGradGradGradGradGradGradGradGradGradGrad

                          Input orientation:                          
 ---------------------------------------------------------------------
 Center     Atomic      Atomic             Coordinates (Angstroms)
 Number     Number       Type             X           Y           Z
 ---------------------------------------------------------------------
      1          6           0        4.885300    0.690700    0.093320
      2          6           0        4.884530   -0.699910    0.053470
      3          6           0        3.675060   -1.393760   -0.014600
      4          6           0        2.450840   -0.704590   -0.036490
      5          6           0        1.225090   -1.389120   -0.070270
      6          6           0       -0.000010   -0.700920   -0.063080
      7          6           0       -1.224490   -1.389570   -0.041100
      8          6           0       -2.450390   -0.705110   -0.008580
      9          6           0       -3.672320   -1.395020    0.059980
     10          6           0       -4.882780   -0.702000    0.095640
     11          6           0       -4.888360    0.688400    0.044680
     12          6           0       -3.682230    1.388130   -0.022010
     13          6           0       -2.453970    0.705530   -0.035650
     14          6           0       -1.228490    1.393360   -0.063300
     15          6           0       -0.000320    0.707180   -0.058890
     16          6           0        1.226350    1.394590   -0.038010
     17          6           0        2.451950    0.705530   -0.009760
     18          6           0        3.677430    1.389790    0.054770
     19          1           0        5.825070    1.232690    0.157340
     20          1           0        5.823560   -1.246580    0.079760
     21          1           0        3.694910   -2.481070   -0.041070
     22          1           0        1.224840   -2.477560   -0.085620
     23          1           0       -1.223480   -2.478030   -0.032140
     24          1           0       -3.688400   -2.482090    0.096330
     25          1           0       -5.819690   -1.248880    0.163440
     26          1           0       -5.830550    1.229670    0.061750
     27          1           0       -3.707460    2.474820   -0.057250
     28          1           0       -1.230650    2.481690   -0.070390
     29          1           0        1.227090    2.482260   -0.025560
     30          1           0        3.699460    2.477120    0.085800
 ---------------------------------------------------------------------
                    Distance matrix (angstroms):
                    1          2          3          4          5
     1  C    0.000000
     2  C    1.391181   0.000000
     3  C    2.412737   1.396023   0.000000
     4  C    2.808964   2.435357   1.405044   0.000000
     5  C    4.213022   3.725832   2.450607   1.404345   0.000000
     6  C    5.082059   4.885930   3.740123   2.450997   1.405184
     7  C    6.455627   6.148553   4.899623   3.738619   2.449754
     8  C    7.468000   7.335184   6.164042   4.901309   3.739095
     9  C    8.808189   8.585039   7.347759   6.162718   4.899145
    10  C    9.866864   9.767401   8.586461   7.334811   6.148637
    11  C    9.773781   9.871011   8.813119   7.470667   6.457830
    12  C    8.596644   8.817879   7.865665   6.480296   5.638904
    13  C    7.340418   7.472402   6.478616   5.103489   4.233703
    14  C    6.156029   6.462540   5.640498   4.235514   3.709757
    15  C    4.888018   5.084711   4.233713   2.828742   2.428216
    16  C    3.728354   4.216347   3.711014   2.430213   2.783897
    17  C    2.435577   2.810108   2.429617   1.410374   2.428252
    18  C    1.396124   2.413284   2.784415   2.428843   3.708362
    19  H    1.086747   2.151824   3.398580   3.895645   5.299576
    20  H    2.152573   1.086884   2.155602   3.417968   4.603124
    21  H    3.390459   2.143983   1.087813   2.168781   2.700596
    22  H    4.844467   4.070960   2.680158   2.156134   1.088548
    23  H    6.882862   6.362140   5.017135   4.079919   2.680051
    24  H    9.141933   8.756320   7.444280   6.392763   5.036340
    25  H   10.879508  10.718852   9.497524   8.290832   7.050051
    26  H   10.729442  10.887437   9.861280   8.504848   7.527121
    27  H    8.777316   9.160429   8.334826   6.930638   6.265800
    28  H    6.374895   6.894443   6.252057   4.868973   4.584084
    29  H    4.075085   4.848641   4.584344   3.413751   3.871639
    30  H    2.144194   3.391011   3.872259   3.420129   4.592894
                    6          7          8          9         10
     6  C    0.000000
     7  C    1.405017   0.000000
     8  C    2.450990   1.404412   0.000000
     9  C    3.739355   2.449922   1.404916   0.000000
    10  C    4.885349   3.724854   2.434624   1.395264   0.000000
    11  C    5.083088   4.212987   2.808630   2.412390   1.391345
    12  C    4.233741   3.708971   2.428840   2.784375   2.413256
    13  C    2.828564   2.429217   1.410904   2.430192   2.810248
    14  C    2.427998   2.783021   2.428911   3.709793   4.215404
    15  C    1.408106   2.428018   2.828416   4.232843   5.084101
    16  C    2.428116   3.709201   4.234150   5.638129   6.460265
    17  C    2.827199   4.231623   5.101259   6.474863   7.469305
    18  C    4.231846   5.635854   6.476326   7.859645   8.812176
    19  H    6.141579   7.524089   8.500932   9.854682  10.881401
    20  H    5.850822   7.050536   8.292119   9.497061  10.720193
    21  H    4.101445   5.039034   6.396859   7.447536   8.761310
    22  H    2.158058   2.680470   4.081033   5.017496   6.363057
    23  H    2.157766   1.088497   2.156179   2.679219   4.069532
    24  H    4.099049   2.698766   2.168256   1.087796   2.143657
    25  H    5.849807   4.601901   3.417230   2.154822   1.086957
    26  H    6.143123   5.299697   3.895356   3.398081   2.151921
    27  H    4.881654   4.593355   3.419729   3.871775   3.390713
    28  H    3.412262   3.871376   3.412811   4.583408   4.847835
    29  H    3.411718   4.582745   4.866567   6.248587   6.890915
    30  H    4.879363   6.262003   6.925038   8.326901   9.152144
                   11         12         13         14         15
    11  C    0.000000
    12  C    1.396001   0.000000
    13  C    2.435775   1.405258   0.000000
    14  C    3.728710   2.454093   1.405587   0.000000
    15  C    4.889173   3.744531   2.453761   1.406863   0.000000
    16  C    6.155909   4.908610   3.744271   2.454971   1.406303
    17  C    7.340532   6.172055   4.905988   3.744545   2.452763
    18  C    8.594464   7.360061   6.170126   4.907342   3.742288
    19  H   10.727839   9.510262   8.298051   7.058839   5.853041
    20  H   10.885339   9.864689   8.505384   7.531345   6.144427
    21  H    9.150159   8.330262   6.925545   6.265107   4.880572
    22  H    6.885601   6.247155   4.864998   4.582941   3.412375
    23  H    4.843916   4.581784   3.413088   3.871519   3.412096
    24  H    3.390366   3.872034   3.420842   4.593011   4.878265
    25  H    2.152797   3.399551   3.897105   5.302071   6.143343
    26  H    1.086732   2.155784   3.418406   4.606668   5.854838
    27  H    2.143878   1.087554   2.168431   2.704604   4.106999
    28  H    4.075288   2.684857   2.156957   1.088355   2.159336
    29  H    6.373507   5.029767   4.087429   2.686448   2.158369
    30  H    8.772221   7.462364   6.404528   5.047916   4.103900
                   16         17         18         19         20
    16  C    0.000000
    17  C    1.406306   0.000000
    18  C    2.452840   1.405054   0.000000
    19  H    4.605714   3.418151   2.155820   0.000000
    20  H    5.303205   3.896986   3.399551   2.480484   0.000000
    21  H    4.595056   3.420577   3.872086   4.285903   2.463679
    22  H    3.872443   3.412274   4.581627   5.914989   4.763495
    23  H    4.582454   4.862545   6.243917   7.967898   7.154702
    24  H    6.261107   6.919254   8.321576  10.213199   9.591879
    25  H    7.528293   8.501161   9.857468  11.906245  11.643551
    26  H    7.059532   8.299376   9.509331  11.656012  11.914295
    27  H    5.050718   6.408664   7.465014   9.615512  10.232689
    28  H    2.686947   4.089005   5.029628   7.169034   7.980252
    29  H    1.087742   2.158078   2.684047   4.768259   5.919702
    30  H    2.702494   2.168858   1.087996   2.464131   4.286931
                   21         22         23         24         25
    21  H    0.000000
    22  H    2.470474   0.000000
    23  H    4.918399   2.448904   0.000000
    24  H    7.384588   4.916610   2.468269   0.000000
    25  H    9.596235   7.155214   4.761744   2.463272   0.000000
    26  H   10.223236   7.971437   5.914469   4.285693   2.480659
    27  H    8.908209   6.989596   5.540894   4.959325   4.286743
    28  H    6.992209   5.533880   4.959873   5.541430   5.918709
    29  H    5.543015   4.960184   5.532614   6.987251   7.975853
    30  H    4.959815   5.540937   6.985897   8.897997  10.222687
                   26         27         28         29         30
    26  H    0.000000
    27  H    2.464157   0.000000
    28  H    4.769077   2.476854   0.000000
    29  H    7.168465   4.934657   2.458149   0.000000
    30  H    9.611337   7.408302   4.932586   2.474882   0.000000
 Stoichiometry    C18H12
 Framework group  C1[X(C18H12)]
 Deg. of freedom    84
 Full point group                 C1      NOp   1
 Largest Abelian subgroup         C1      NOp   1
 Largest concise Abelian subgroup C1      NOp   1
                         Standard orientation:                         
 ---------------------------------------------------------------------
 Center     Atomic      Atomic             Coordinates (Angstroms)
 Number     Number       Type             X           Y           Z
 ---------------------------------------------------------------------
      1          6           0        4.885755    0.691422    0.092966
      2          6           0        4.884875   -0.699162    0.052221
      3          6           0        3.675340   -1.392880   -0.016043
      4          6           0        2.451166   -0.703606   -0.037232
      5          6           0        1.225358   -1.388025   -0.071196
      6          6           0        0.000310   -0.699740   -0.063307
      7          6           0       -1.224215   -1.388315   -0.041514
      8          6           0       -2.450059   -0.703786   -0.008296
      9          6           0       -3.672025   -1.393651    0.060075
     10          6           0       -4.882426   -0.700566    0.096435
     11          6           0       -4.887915    0.689867    0.046372
     12          6           0       -3.681748    1.389552   -0.020120
     13          6           0       -2.453541    0.706871   -0.034457
     14          6           0       -1.228016    1.394629   -0.061921
     15          6           0        0.000104    0.708357   -0.058210
     16          6           0        1.226829    1.395664   -0.037144
     17          6           0        2.452384    0.706496   -0.009594
     18          6           0        3.677928    1.390625    0.055120
     19          1           0        5.825578    1.233302    0.157139
     20          1           0        5.823870   -1.245918    0.077962
     21          1           0        3.695105   -2.480174   -0.043217
     22          1           0        1.225026   -2.476455   -0.087247
     23          1           0       -1.223283   -2.476780   -0.033255
     24          1           0       -3.688177   -2.480743    0.095729
     25          1           0       -5.819362   -1.247421    0.164079
     26          1           0       -5.830062    1.231195    0.063988
     27          1           0       -3.706906    2.476266   -0.054655
     28          1           0       -1.230098    2.482964   -0.068309
     29          1           0        1.227651    2.483325   -0.023994
     30          1           0        3.700044    2.477933    0.086845
 ---------------------------------------------------------------------
 Rotational constants (GHZ):           1.6768972           0.2147061           0.1904399
 Standard basis: def2SVPP (5D, 7F)
 There are   294 symmetry adapted cartesian basis functions of A   symmetry.
 There are   276 symmetry adapted basis functions of A   symmetry.
   276 basis functions,   498 primitive gaussians,   294 cartesian basis functions
    60 alpha electrons       60 beta electrons
       nuclear repulsion energy      1119.3642065463 Hartrees.
 NAtoms=   30 NActive=   30 NUniq=   30 SFac= 1.00D+00 NAtFMM=   60 NAOKFM=F Big=F
 Integral buffers will be    131072 words long.
 Raffenetti 2 integral format.
 Two-electron integral symmetry is turned on.
 Nuclear repulsion after empirical dispersion term =     1119.2919361529 Hartrees.
 One-electron integrals computed using PRISM.
   1 Symmetry operations used in ECPInt.
 ECPInt:  NShTT=    8778 NPrTT=   35250 LenC2=    8106 LenP2D=   22826.
 LDataN:  DoStor=T MaxTD1= 4 Len=   56
 NBasis=   276 RedAO= T EigKep=  2.23D-04  NBF=   276
 NBsUse=   276 1.00D-06 EigRej= -1.00D+00 NBFU=   276
 ExpMin= 1.22D-01 ExpMax= 1.24D+03 ExpMxC= 1.86D+02 IAcc=3 IRadAn=         5 AccDes= 0.00D+00
 Harris functional with IExCor=  402 and IRadAn=       5 diagonalized for initial guess.
 HarFok:  IExCor=  402 AccDes= 0.00D+00 IRadAn=         5 IDoV= 1 UseB2=F ITyADJ=14
 ICtDFT=  3500011 ScaDFX=  1.000000  1.000000  1.000000  1.000000
 FoFCou: FMM=F IPFlag=           0 FMFlag=      100000 FMFlg1=           0
         NFxFlg=           0 DoJE=T BraDBF=F KetDBF=T FulRan=T
         wScrn=  0.000000 ICntrl=       500 IOpCl=  0 I1Cent=   200000004 NGrid=           0
         NMat0=    1 NMatS0=      1 NMatT0=    0 NMatD0=    1 NMtDS0=    0 NMtDT0=    0
 Petite list used in FoFCou.
 Requested convergence on RMS density matrix=1.00D-08 within 128 cycles.
 Requested convergence on MAX density matrix=1.00D-06.
 Requested convergence on             energy=1.00D-06.
 No special actions if energy rises.
 Integral accuracy reduced to 1.0D-05 until final iterations.
 Initial convergence to 1.0D-05 achieved.  Increase integral accuracy.
 SCF Done:  E(RB3LYP) =  -692.705847871     A.U. after   15 cycles
            NFock= 15  Conv=0.87D-08     -V/T= 2.0102

 **********************************************************************

            Population analysis using the SCF Density.

 **********************************************************************

 Orbital symmetries:
       Occupied  (A) (A) (A) (A) (A) (A) (A) (A) (A) (A) (A) (A)
                 (A) (A) (A) (A) (A) (A) (A) (A) (A) (A) (A) (A)
                 (A) (A) (A) (A) (A) (A) (A) (A) (A) (A) (A) (A)
                 (A) (A) (A) (A) (A) (A) (A) (A) (A) (A) (A) (A)
                 (A) (A) (A) (A) (A) (A) (A) (A) (A) (A) (A) (A)
       Virtual   (A) (A) (A) (A) (A) (A) (A) (A) (A) (A) (A) (A)
                 (A) (A) (A) (A) (A) (A) (A) (A) (A) (A) (A) (A)
                 (A) (A) (A) (A) (A) (A) (A) (A) (A) (A) (A) (A)
                 (A) (A) (A) (A) (A) (A) (A) (A) (A) (A) (A) (A)
                 (A) (A) (A) (A) (A) (A) (A) (A) (A) (A) (A) (A)
                 (A) (A) (A) (A) (A) (A) (A) (A) (A) (A) (A) (A)
                 (A) (A) (A) (A) (A) (A) (A) (A) (A) (A) (A) (A)
                 (A) (A) (A) (A) (A) (A) (A) (A) (A) (A) (A) (A)
                 (A) (A) (A) (A) (A) (A) (A) (A) (A) (A) (A) (A)
                 (A) (A) (A) (A) (A) (A) (A) (A) (A) (A) (A) (A)
                 (A) (A) (A) (A) (A) (A) (A) (A) (A) (A) (A) (A)
                 (A) (A) (A) (A) (A) (A) (A) (A) (A) (A) (A) (A)
                 (A) (A) (A) (A) (A) (A) (A) (A) (A) (A) (A) (A)
                 (A) (A) (A) (A) (A) (A) (A) (A) (A) (A) (A) (A)
                 (A) (A) (A) (A) (A) (A) (A) (A) (A) (A) (A) (A)
                 (A) (A) (A) (A) (A) (A) (A) (A) (A) (A) (A) (A)
                 (A) (A) (A) (A) (A) (A) (A) (A) (A) (A) (A) (A)
                 (A) (A) (A) (A) (A) (A) (A) (A) (A) (A) (A) (A)
 The electronic state is 1-A.
 Alpha  occ. eigenvalues --  -10.19585 -10.19554 -10.19553 -10.19541 -10.19517
 Alpha  occ. eigenvalues --  -10.19513 -10.19031 -10.19028 -10.19005 -10.19002
 Alpha  occ. eigenvalues --  -10.19002 -10.19000 -10.18999 -10.18991 -10.18958
 Alpha  occ. eigenvalues --  -10.18956 -10.18928 -10.18924  -0.88816  -0.86722
 Alpha  occ. eigenvalues --   -0.83329  -0.78684  -0.78398  -0.76264  -0.74207
 Alpha  occ. eigenvalues --   -0.72809  -0.68183  -0.66464  -0.61490  -0.61039
 Alpha  occ. eigenvalues --   -0.60607  -0.59515  -0.55739  -0.53171  -0.50882
 Alpha  occ. eigenvalues --   -0.49824  -0.49182  -0.46278  -0.45572  -0.45113
 Alpha  occ. eigenvalues --   -0.44729  -0.42487  -0.41569  -0.41516  -0.41493
 Alpha  occ. eigenvalues --   -0.41333  -0.40781  -0.38943  -0.37398  -0.36634
 Alpha  occ. eigenvalues --   -0.34884  -0.34846  -0.33789  -0.33645  -0.30921
 Alpha  occ. eigenvalues --   -0.29543  -0.28151  -0.25237  -0.23706  -0.18007
 Alpha virt. eigenvalues --   -0.09215  -0.02917  -0.01642   0.01466   0.03166
 Alpha virt. eigenvalues --    0.03760   0.06617   0.06672   0.07183   0.09104
 Alpha virt. eigenvalues --    0.09150   0.11156   0.11532   0.11669   0.13111
 Alpha virt. eigenvalues --    0.13564   0.15375   0.15729   0.17868   0.19497
 Alpha virt. eigenvalues --    0.20928   0.22126   0.25054   0.26914   0.27464
 Alpha virt. eigenvalues --    0.27718   0.27767   0.28467   0.29359   0.30108
 Alpha virt. eigenvalues --    0.30553   0.31777   0.33088   0.34060   0.34350
 Alpha virt. eigenvalues --    0.35680   0.35955   0.36632   0.36747   0.38240
 Alpha virt. eigenvalues --    0.39736   0.40167   0.42662   0.42792   0.44031
 Alpha virt. eigenvalues --    0.44718   0.44808   0.45113   0.45768   0.46354
 Alpha virt. eigenvalues --    0.47048   0.47787   0.48370   0.48569   0.48744
 Alpha virt. eigenvalues --    0.49430   0.50246   0.51738   0.51909   0.51974
 Alpha virt. eigenvalues --    0.52095   0.52183   0.53798   0.55436   0.55895
 Alpha virt. eigenvalues --    0.58807   0.59164   0.60156   0.60474   0.62930
 Alpha virt. eigenvalues --    0.64690   0.66074   0.66690   0.67078   0.67871
 Alpha virt. eigenvalues --    0.68363   0.68506   0.68695   0.68884   0.68960
 Alpha virt. eigenvalues --    0.69712   0.70062   0.71856   0.72315   0.73144
 Alpha virt. eigenvalues --    0.73839   0.74195   0.74320   0.75290   0.76775
 Alpha virt. eigenvalues --    0.77013   0.78844   0.78994   0.79528   0.80452
 Alpha virt. eigenvalues --    0.81013   0.81245   0.82829   0.83061   0.83848
 Alpha virt. eigenvalues --    0.83917   0.89664   0.91119   0.91973   0.94179
 Alpha virt. eigenvalues --    0.97210   1.04958   1.08644   1.10664   1.11808
 Alpha virt. eigenvalues --    1.15558   1.16967   1.18143   1.18603   1.21608
 Alpha virt. eigenvalues --    1.22110   1.24234   1.24458   1.26731   1.27958
 Alpha virt. eigenvalues --    1.28086   1.28263   1.30919   1.31384   1.31431
 Alpha virt. eigenvalues --    1.35987   1.38126   1.38670   1.41263   1.41599
 Alpha virt. eigenvalues --    1.42546   1.45400   1.46987   1.47194   1.47814
 Alpha virt. eigenvalues --    1.48956   1.49306   1.49390   1.49584   1.50733
 Alpha virt. eigenvalues --    1.53647   1.68193   1.69979   1.71926   1.73722
 Alpha virt. eigenvalues --    1.75003   1.80673   1.81481   1.82613   1.83321
 Alpha virt. eigenvalues --    1.83605   1.83796   1.85799   1.86772   1.87032
 Alpha virt. eigenvalues --    1.87206   1.88133   1.89007   1.89465   1.96030
 Alpha virt. eigenvalues --    1.97591   1.97821   2.00213   2.03584   2.05677
 Alpha virt. eigenvalues --    2.05741   2.09368   2.09854   2.10959   2.12686
 Alpha virt. eigenvalues --    2.18175   2.19585   2.19740   2.20635   2.20976
 Alpha virt. eigenvalues --    2.21422   2.25833   2.25980   2.26195   2.28148
 Alpha virt. eigenvalues --    2.28975   2.30645   2.31940   2.34220   2.34590
 Alpha virt. eigenvalues --    2.34804   2.39056   2.42028   2.47865   2.47923
 Alpha virt. eigenvalues --    2.51252   2.56891   2.57941   2.61061   2.61157
 Alpha virt. eigenvalues --    2.61824   2.63112   2.63979   2.67586   2.68328
 Alpha virt. eigenvalues --    2.68360   2.68613   2.71582   2.74532   2.79256
 Alpha virt. eigenvalues --    2.83513   2.84939   2.87376   2.91539   2.93145
 Alpha virt. eigenvalues --    2.96278   3.06128   3.25983   3.38868   3.48263
 Alpha virt. eigenvalues --    3.50153
          Condensed to atoms (all electrons):
               1          2          3          4          5          6
     1  C    5.242672   0.134470   0.146315  -0.156219  -0.002263   0.000309
     2  C    0.134470   5.242984   0.229994   0.142457   0.019702  -0.001338
     3  C    0.146315   0.229994   5.458957   0.198371  -0.159404   0.019228
     4  C   -0.156219   0.142457   0.198371   5.428219   0.230687   0.143083
     5  C   -0.002263   0.019702  -0.159404   0.230687   5.738566   0.211172
     6  C    0.000309  -0.001338   0.019228   0.143083   0.211172   5.412357
     7  C   -0.000005   0.000016  -0.000909   0.020505  -0.163524   0.210566
     8  C    0.000000  -0.000000   0.000012  -0.001511   0.020513   0.143069
     9  C    0.000000  -0.000000  -0.000000   0.000012  -0.000910   0.019265
    10  C   -0.000000   0.000000  -0.000000  -0.000000   0.000016  -0.001346
    11  C    0.000000  -0.000000   0.000000   0.000000  -0.000005   0.000307
    12  C   -0.000000   0.000000   0.000000  -0.000003   0.000099  -0.001710
    13  C   -0.000000   0.000000  -0.000003   0.000266  -0.001676  -0.132217
    14  C    0.000015  -0.000005   0.000098  -0.001708   0.024404   0.031345
    15  C   -0.001322   0.000308  -0.001682  -0.132284   0.031210  -0.044376
    16  C    0.019561  -0.002268   0.025581   0.027188  -0.143678   0.031151
    17  C    0.142263  -0.156060   0.044810  -0.033700   0.027154  -0.132523
    18  C    0.230601   0.146330  -0.175495   0.045184   0.025763  -0.001701
    19  H    0.436307  -0.085025   0.015145  -0.001441   0.000044  -0.000001
    20  H   -0.085016   0.436284  -0.076657   0.015765  -0.000491   0.000009
    21  H    0.015500  -0.080993   0.437533  -0.079231  -0.021956   0.000798
    22  H   -0.000030   0.000610  -0.018741  -0.083029   0.439390  -0.082786
    23  H   -0.000000   0.000000  -0.000042   0.000785  -0.020169  -0.082810
    24  H    0.000000   0.000000   0.000000   0.000000  -0.000048   0.000810
    25  H   -0.000000   0.000000  -0.000000  -0.000000  -0.000000   0.000009
    26  H    0.000000  -0.000000   0.000000   0.000000   0.000000  -0.000001
    27  H    0.000000   0.000000   0.000000  -0.000000   0.000001  -0.000010
    28  H    0.000000  -0.000000   0.000001  -0.000006  -0.000370   0.017948
    29  H    0.000599  -0.000030  -0.000299   0.017911  -0.002294   0.018029
    30  H   -0.080938   0.015468  -0.002058   0.017518  -0.000333  -0.000010
               7          8          9         10         11         12
     1  C   -0.000005   0.000000   0.000000  -0.000000   0.000000  -0.000000
     2  C    0.000016  -0.000000  -0.000000   0.000000  -0.000000   0.000000
     3  C   -0.000909   0.000012  -0.000000  -0.000000   0.000000   0.000000
     4  C    0.020505  -0.001511   0.000012  -0.000000   0.000000  -0.000003
     5  C   -0.163524   0.020513  -0.000910   0.000016  -0.000005   0.000099
     6  C    0.210566   0.143069   0.019265  -0.001346   0.000307  -0.001710
     7  C    5.739173   0.230866  -0.159310   0.019778  -0.002246   0.025722
     8  C    0.230866   5.429211   0.198062   0.142659  -0.156417   0.045280
     9  C   -0.159310   0.198062   5.458929   0.229475   0.146581  -0.175578
    10  C    0.019778   0.142659   0.229475   5.243694   0.133953   0.146383
    11  C   -0.002246  -0.156417   0.146581   0.133953   5.242794   0.230905
    12  C    0.025722   0.045280  -0.175578   0.146383   0.230905   5.457335
    13  C    0.027020  -0.033556   0.044827  -0.156012   0.142254   0.198906
    14  C   -0.143797   0.026864   0.025687  -0.002301   0.019545  -0.159430
    15  C    0.030916  -0.132086  -0.001680   0.000307  -0.001309   0.019033
    16  C    0.024460  -0.001732   0.000099  -0.000005   0.000015  -0.000874
    17  C   -0.001694   0.000268  -0.000003   0.000000  -0.000000   0.000011
    18  C    0.000099  -0.000003   0.000000   0.000000  -0.000000  -0.000000
    19  H    0.000000   0.000000   0.000000  -0.000000   0.000000  -0.000000
    20  H   -0.000000  -0.000000  -0.000000   0.000000  -0.000000   0.000000
    21  H   -0.000047   0.000000   0.000000   0.000000   0.000000   0.000000
    22  H   -0.020159   0.000789  -0.000042   0.000000  -0.000000   0.000001
    23  H    0.439495  -0.083069  -0.018748   0.000621  -0.000031  -0.000303
    24  H   -0.021993  -0.079280   0.437704  -0.081134   0.015513  -0.002076
    25  H   -0.000495   0.015787  -0.076692   0.436280  -0.085053   0.015113
    26  H    0.000044  -0.001442   0.015155  -0.085016   0.436340  -0.076701
    27  H   -0.000334   0.017570  -0.002061   0.015484  -0.081009   0.437246
    28  H   -0.002274   0.017982  -0.000304  -0.000028   0.000581  -0.018743
    29  H   -0.000370  -0.000005   0.000001  -0.000000   0.000000  -0.000040
    30  H    0.000001  -0.000000   0.000000   0.000000   0.000000   0.000000
              13         14         15         16         17         18
     1  C   -0.000000   0.000015  -0.001322   0.019561   0.142263   0.230601
     2  C    0.000000  -0.000005   0.000308  -0.002268  -0.156060   0.146330
     3  C   -0.000003   0.000098  -0.001682   0.025581   0.044810  -0.175495
     4  C    0.000266  -0.001708  -0.132284   0.027188  -0.033700   0.045184
     5  C   -0.001676   0.024404   0.031210  -0.143678   0.027154   0.025763
     6  C   -0.132217   0.031345  -0.044376   0.031151  -0.132523  -0.001701
     7  C    0.027020  -0.143797   0.030916   0.024460  -0.001694   0.000099
     8  C   -0.033556   0.026864  -0.132086  -0.001732   0.000268  -0.000003
     9  C    0.044827   0.025687  -0.001680   0.000099  -0.000003   0.000000
    10  C   -0.156012  -0.002301   0.000307  -0.000005   0.000000   0.000000
    11  C    0.142254   0.019545  -0.001309   0.000015  -0.000000  -0.000000
    12  C    0.198906  -0.159430   0.019033  -0.000874   0.000011  -0.000000
    13  C    5.424648   0.235240   0.141788   0.020186  -0.001464   0.000012
    14  C    0.235240   5.730494   0.214462  -0.163203   0.020199  -0.000883
    15  C    0.141788   0.214462   5.408158   0.213996   0.142432   0.019076
    16  C    0.020186  -0.163203   0.213996   5.730945   0.233756  -0.159098
    17  C   -0.001464   0.020199   0.142432   0.233756   5.427200   0.198695
    18  C    0.000012  -0.000883   0.019076  -0.159098   0.198695   5.457529
    19  H   -0.000000  -0.000000   0.000009  -0.000487   0.015761  -0.076712
    20  H    0.000000   0.000000  -0.000001   0.000044  -0.001436   0.015116
    21  H   -0.000000   0.000001  -0.000011  -0.000327   0.017499  -0.002071
    22  H   -0.000008  -0.000366   0.017904  -0.002287   0.017981  -0.000305
    23  H    0.017924  -0.002295   0.017938  -0.000367  -0.000007   0.000001
    24  H    0.017486  -0.000327  -0.000011   0.000001  -0.000000   0.000000
    25  H   -0.001432   0.000044  -0.000001   0.000000   0.000000   0.000000
    26  H    0.015748  -0.000483   0.000009  -0.000000  -0.000000  -0.000000
    27  H   -0.079031  -0.021871   0.000758  -0.000046   0.000000   0.000000
    28  H   -0.082506   0.438419  -0.082240  -0.020091   0.000737  -0.000040
    29  H    0.000734  -0.020082  -0.082342   0.438999  -0.082849  -0.018685
    30  H    0.000000  -0.000047   0.000782  -0.021830  -0.079129   0.437329
              19         20         21         22         23         24
     1  C    0.436307  -0.085016   0.015500  -0.000030  -0.000000   0.000000
     2  C   -0.085025   0.436284  -0.080993   0.000610   0.000000   0.000000
     3  C    0.015145  -0.076657   0.437533  -0.018741  -0.000042   0.000000
     4  C   -0.001441   0.015765  -0.079231  -0.083029   0.000785   0.000000
     5  C    0.000044  -0.000491  -0.021956   0.439390  -0.020169  -0.000048
     6  C   -0.000001   0.000009   0.000798  -0.082786  -0.082810   0.000810
     7  C    0.000000  -0.000000  -0.000047  -0.020159   0.439495  -0.021993
     8  C    0.000000  -0.000000   0.000000   0.000789  -0.083069  -0.079280
     9  C    0.000000  -0.000000   0.000000  -0.000042  -0.018748   0.437704
    10  C   -0.000000   0.000000   0.000000   0.000000   0.000621  -0.081134
    11  C    0.000000  -0.000000   0.000000  -0.000000  -0.000031   0.015513
    12  C   -0.000000   0.000000   0.000000   0.000001  -0.000303  -0.002076
    13  C   -0.000000   0.000000  -0.000000  -0.000008   0.017924   0.017486
    14  C   -0.000000   0.000000   0.000001  -0.000366  -0.002295  -0.000327
    15  C    0.000009  -0.000001  -0.000011   0.017904   0.017938  -0.000011
    16  C   -0.000487   0.000044  -0.000327  -0.002287  -0.000367   0.000001
    17  C    0.015761  -0.001436   0.017499   0.017981  -0.000007  -0.000000
    18  C   -0.076712   0.015116  -0.002071  -0.000305   0.000001   0.000000
    19  H    0.669463  -0.012422  -0.000317  -0.000001   0.000000   0.000000
    20  H   -0.012422   0.669430  -0.012463  -0.000014  -0.000000  -0.000000
    21  H   -0.000317  -0.012463   0.677477   0.007480  -0.000000  -0.000000
    22  H   -0.000001  -0.000014   0.007480   0.685804   0.007675  -0.000000
    23  H    0.000000  -0.000000  -0.000000   0.007675   0.685828   0.007481
    24  H    0.000000  -0.000000  -0.000000  -0.000000   0.007481   0.677608
    25  H    0.000000  -0.000000  -0.000000  -0.000000  -0.000014  -0.012486
    26  H   -0.000000   0.000000   0.000000   0.000000  -0.000001  -0.000318
    27  H   -0.000000   0.000000  -0.000000   0.000000   0.000012   0.000036
    28  H   -0.000000   0.000000   0.000000   0.000012   0.000035   0.000012
    29  H   -0.000013  -0.000001   0.000011   0.000035   0.000012   0.000000
    30  H   -0.012460  -0.000316   0.000036   0.000012   0.000000  -0.000000
              25         26         27         28         29         30
     1  C   -0.000000   0.000000   0.000000   0.000000   0.000599  -0.080938
     2  C    0.000000  -0.000000   0.000000  -0.000000  -0.000030   0.015468
     3  C   -0.000000   0.000000   0.000000   0.000001  -0.000299  -0.002058
     4  C   -0.000000   0.000000  -0.000000  -0.000006   0.017911   0.017518
     5  C   -0.000000   0.000000   0.000001  -0.000370  -0.002294  -0.000333
     6  C    0.000009  -0.000001  -0.000010   0.017948   0.018029  -0.000010
     7  C   -0.000495   0.000044  -0.000334  -0.002274  -0.000370   0.000001
     8  C    0.015787  -0.001442   0.017570   0.017982  -0.000005  -0.000000
     9  C   -0.076692   0.015155  -0.002061  -0.000304   0.000001   0.000000
    10  C    0.436280  -0.085016   0.015484  -0.000028  -0.000000   0.000000
    11  C   -0.085053   0.436340  -0.081009   0.000581   0.000000   0.000000
    12  C    0.015113  -0.076701   0.437246  -0.018743  -0.000040   0.000000
    13  C   -0.001432   0.015748  -0.079031  -0.082506   0.000734   0.000000
    14  C    0.000044  -0.000483  -0.021871   0.438419  -0.020082  -0.000047
    15  C   -0.000001   0.000009   0.000758  -0.082240  -0.082342   0.000782
    16  C    0.000000  -0.000000  -0.000046  -0.020091   0.438999  -0.021830
    17  C    0.000000  -0.000000   0.000000   0.000737  -0.082849  -0.079129
    18  C    0.000000  -0.000000   0.000000  -0.000040  -0.018685   0.437329
    19  H    0.000000  -0.000000  -0.000000  -0.000000  -0.000013  -0.012460
    20  H   -0.000000   0.000000   0.000000   0.000000  -0.000001  -0.000316
    21  H   -0.000000   0.000000  -0.000000   0.000000   0.000011   0.000036
    22  H   -0.000000   0.000000   0.000000   0.000012   0.000035   0.000012
    23  H   -0.000014  -0.000001   0.000012   0.000035   0.000012   0.000000
    24  H   -0.012486  -0.000318   0.000036   0.000012   0.000000  -0.000000
    25  H    0.669525  -0.012413  -0.000316  -0.000001   0.000000   0.000000
    26  H   -0.012413   0.669375  -0.012475  -0.000014  -0.000000  -0.000000
    27  H   -0.000316  -0.012475   0.677640   0.007476  -0.000000  -0.000000
    28  H   -0.000001  -0.000014   0.007476   0.685865   0.007646  -0.000000
    29  H    0.000000  -0.000000  -0.000000   0.007646   0.685856   0.007421
    30  H    0.000000  -0.000000  -0.000000  -0.000000   0.007421   0.677383
 Mulliken charges:
               1
     1  C   -0.042820
     2  C   -0.042902
     3  C   -0.140755
     4  C    0.201178
     5  C   -0.251598
     6  C    0.221378
     7  C   -0.251502
     8  C    0.200170
     9  C   -0.140467
    10  C   -0.042809
    11  C   -0.042719
    12  C   -0.140575
    13  C    0.200865
    14  C   -0.250020
    15  C    0.220257
    16  C   -0.249688
    17  C    0.200097
    18  C   -0.140742
    19  H    0.052151
    20  H    0.052170
    21  H    0.041082
    22  H    0.030076
    23  H    0.030049
    24  H    0.041023
    25  H    0.052144
    26  H    0.052194
    27  H    0.040931
    28  H    0.029904
    29  H    0.029757
    30  H    0.041170
 Sum of Mulliken charges =  -0.00000
 Mulliken charges with hydrogens summed into heavy atoms:
               1
     1  C    0.009332
     2  C    0.009269
     3  C   -0.099673
     4  C    0.201178
     5  C   -0.221522
     6  C    0.221378
     7  C   -0.221453
     8  C    0.200170
     9  C   -0.099445
    10  C    0.009335
    11  C    0.009475
    12  C   -0.099645
    13  C    0.200865
    14  C   -0.220116
    15  C    0.220257
    16  C   -0.219932
    17  C    0.200097
    18  C   -0.099572
 Electronic spatial extent (au):  <R**2>=           5404.6308
 Charge=             -0.0000 electrons
 Dipole moment (field-independent basis, Debye):
    X=             -0.0000    Y=             -0.0097    Z=              0.0952  Tot=              0.0957
 Quadrupole moment (field-independent basis, Debye-Ang):
   XX=            -91.0314   YY=            -92.4521   ZZ=           -110.8745
   XY=             -0.0182   XZ=              0.0216   YZ=             -0.0069
 Traceless Quadrupole moment (field-independent basis, Debye-Ang):
   XX=              7.0879   YY=              5.6672   ZZ=            -12.7552
   XY=             -0.0182   XZ=              0.0216   YZ=             -0.0069
 Octapole moment (field-independent basis, Debye-Ang**2):
  XXX=             -0.0369  YYY=             -0.0413  ZZZ=              0.0618  XYY=              0.0208
  XXY=             -0.0576  XXZ=              5.0382  XZZ=             -0.0106  YZZ=             -0.0281
  YYZ=              0.0975  XYZ=              1.5990
 Hexadecapole moment (field-independent basis, Debye-Ang**3):
 XXXX=          -5886.6053 YYYY=           -903.2074 ZZZZ=           -124.6196 XXXY=             -1.0389
 XXXZ=              0.8703 YYYX=             -0.0628 YYYZ=              0.0126 ZZZX=              0.0252
 ZZZY=             -0.0071 XXYY=          -1153.2553 XXZZ=          -1216.6426 YYZZ=           -200.2888
 XXYZ=             -0.7523 YYXZ=              0.0524 ZZXY=              0.1908
 N-N= 1.119291936153D+03 E-N=-3.841146474160D+03  KE= 6.857197457683D+02
   1 Symmetry operations used in ECPInt.
 ECPInt:  NShTT=    8778 NPrTT=   35250 LenC2=    8106 LenP2D=   22826.
 LDataN:  DoStor=T MaxTD1= 5 Len=  102
 Calling FoFJK, ICntrl=      2127 FMM=F ISym2X=0 I1Cent= 0 IOpClX= 0 NMat=1 NMatS=1 NMatT=0.
 ***** Axes restored to original set *****
 -------------------------------------------------------------------
 Center     Atomic                   Forces (Hartrees/Bohr)
 Number     Number              X              Y              Z
 -------------------------------------------------------------------
      1        6          -0.019366318    0.031231555   -0.000164713
      2        6          -0.019510365   -0.031218738   -0.001640628
      3        6           0.036277140    0.001782553    0.001600518
      4        6          -0.019745902   -0.028987926   -0.001299385
      5        6           0.007606135    0.002840592    0.000456404
      6        6           0.000189803   -0.034540359   -0.000258174
      7        6          -0.007789712    0.002953909    0.000490108
      8        6           0.019921754   -0.028835488   -0.000622770
      9        6          -0.035861203    0.001534504    0.001617775
     10        6           0.018981302   -0.030996423   -0.000147960
     11        6           0.019328984    0.031142979   -0.001591609
     12        6          -0.035839911   -0.001869538    0.001423891
     13        6           0.020386042    0.028703207   -0.001129991
     14        6          -0.007356137   -0.003499826    0.000499709
     15        6          -0.000402621    0.035102731   -0.000381623
     16        6           0.007667077   -0.004509070    0.000588301
     17        6          -0.020606661    0.029826214   -0.000501223
     18        6           0.036096523   -0.001724872    0.001598963
     19        1           0.003961968    0.003305545   -0.000042140
     20        1           0.003902039   -0.003167944   -0.000014128
     21        1          -0.002548697   -0.004295320   -0.000158226
     22        1          -0.000091566   -0.003599135    0.000097726
     23        1           0.000073053   -0.003626072    0.000075454
     24        1           0.002494414   -0.004311534   -0.000143952
     25        1          -0.003894444   -0.003124876   -0.000078551
     26        1          -0.003953318    0.003307868    0.000031830
     27        1           0.002458262    0.004513336   -0.000032717
     28        1           0.000081422    0.003751651   -0.000145105
     29        1           0.000040169    0.004125500    0.000003144
     30        1          -0.002499231    0.004184975   -0.000130926
 -------------------------------------------------------------------
 Cartesian Forces:  Max     0.036277140 RMS     0.014364640

 GradGradGradGradGradGradGradGradGradGradGradGradGradGradGradGradGradGrad
 Berny optimization.
 FormGI is forming the generalized inverse of G from B-inverse, IUseBI=4.
 Internal  Forces:  Max     0.038290244 RMS     0.007154913
 Search for a local minimum.
 Step number   1 out of a maximum of  180
 All quantities printed in internal units (Hartrees-Bohrs-Radians)
 Mixed Optimization -- RFO/linear search
 Second derivative matrix not updated -- first step.
 ITU=  0
     Eigenvalues ---    0.01991   0.01992   0.01998   0.02000   0.02001
     Eigenvalues ---    0.02002   0.02006   0.02007   0.02007   0.02009
     Eigenvalues ---    0.02010   0.02020   0.02020   0.02026   0.02027
     Eigenvalues ---    0.02079   0.02079   0.02080   0.02081   0.02082
     Eigenvalues ---    0.02086   0.02161   0.02163   0.02164   0.02166
     Eigenvalues ---    0.02181   0.02182   0.15997   0.15997   0.15997
     Eigenvalues ---    0.15998   0.15999   0.15999   0.15999   0.16000
     Eigenvalues ---    0.16000   0.16000   0.16000   0.16000   0.21999
     Eigenvalues ---    0.21999   0.22475   0.22538   0.23081   0.23392
     Eigenvalues ---    0.23771   0.24052   0.24531   0.24592   0.24997
     Eigenvalues ---    0.24998   0.34981   0.34987   0.35003   0.35045
     Eigenvalues ---    0.35067   0.35069   0.35075   0.35097   0.35167
     Eigenvalues ---    0.35175   0.35191   0.35193   0.37192   0.39444
     Eigenvalues ---    0.40370   0.40900   0.41426   0.41512   0.42260
     Eigenvalues ---    0.43760   0.44464   0.44525   0.44550   0.44691
     Eigenvalues ---    0.44746   0.44764   0.44802   0.45647   0.45681
     Eigenvalues ---    0.45727   0.45764   0.46692   0.46701
 RFO step:  Lambda=-1.93961963D-02 EMin= 1.99135421D-02
 Linear search not attempted -- first point.
 Iteration  1 RMS(Cart)=  0.03229080 RMS(Int)=  0.00029110
 Iteration  2 RMS(Cart)=  0.00033638 RMS(Int)=  0.00003262
 Iteration  3 RMS(Cart)=  0.00000011 RMS(Int)=  0.00003262
 Variable       Old X    -DE/DX   Delta X   Delta X   Delta X     New X
                                 (Linear)    (Quad)   (Total)
    R1        2.62895   0.03034   0.00000   0.05966   0.05967   2.68862
    R2        2.63829  -0.01556   0.00000  -0.03342  -0.03342   2.60488
    R3        2.05365   0.00507   0.00000   0.01366   0.01366   2.06731
    R4        2.63810  -0.01547   0.00000  -0.03319  -0.03318   2.60492
    R5        2.05391   0.00496   0.00000   0.01338   0.01338   2.06729
    R6        2.65515   0.01912   0.00000   0.04207   0.04206   2.69721
    R7        2.05567   0.00425   0.00000   0.01149   0.01149   2.06716
    R8        2.65383  -0.00175   0.00000  -0.00385  -0.00384   2.64999
    R9        2.66522   0.03450   0.00000   0.07703   0.07702   2.74224
   R10        2.65541   0.00621   0.00000   0.01368   0.01369   2.66910
   R11        2.05706   0.00360   0.00000   0.00974   0.00974   2.06680
   R12        2.65510   0.00640   0.00000   0.01408   0.01409   2.66919
   R13        2.66094   0.03829   0.00000   0.08383   0.08384   2.74477
   R14        2.65395  -0.00190   0.00000  -0.00418  -0.00417   2.64978
   R15        2.05696   0.00363   0.00000   0.00982   0.00982   2.06678
   R16        2.65491   0.01930   0.00000   0.04244   0.04244   2.69735
   R17        2.66622   0.03420   0.00000   0.07649   0.07648   2.74270
   R18        2.63667  -0.01491   0.00000  -0.03188  -0.03187   2.60480
   R19        2.05564   0.00427   0.00000   0.01153   0.01153   2.06717
   R20        2.62926   0.03028   0.00000   0.05959   0.05959   2.68885
   R21        2.05405   0.00492   0.00000   0.01327   0.01327   2.06732
   R22        2.63806  -0.01554   0.00000  -0.03337  -0.03337   2.60469
   R23        2.05363   0.00508   0.00000   0.01367   0.01367   2.06729
   R24        2.65555   0.01894   0.00000   0.04162   0.04161   2.69716
   R25        2.05518   0.00445   0.00000   0.01203   0.01203   2.06720
   R26        2.65618  -0.00289   0.00000  -0.00657  -0.00658   2.64960
   R27        2.65859   0.00488   0.00000   0.01063   0.01062   2.66921
   R28        2.05669   0.00375   0.00000   0.01016   0.01016   2.06685
   R29        2.65753   0.00522   0.00000   0.01132   0.01132   2.66884
   R30        2.65753  -0.00328   0.00000  -0.00743  -0.00744   2.65009
   R31        2.05553   0.00413   0.00000   0.01114   0.01114   2.06668
   R32        2.65517   0.01903   0.00000   0.04183   0.04182   2.69699
   R33        2.05601   0.00413   0.00000   0.01116   0.01116   2.06718
    A1        2.09354   0.00438   0.00000   0.01105   0.01105   2.10460
    A2        2.09519  -0.00128   0.00000  -0.00047  -0.00047   2.09472
    A3        2.09445  -0.00310   0.00000  -0.01058  -0.01058   2.08387
    A4        2.09288   0.00449   0.00000   0.01156   0.01157   2.10445
    A5        2.09623  -0.00144   0.00000  -0.00131  -0.00132   2.09492
    A6        2.09406  -0.00305   0.00000  -0.01024  -0.01024   2.08381
    A7        2.10813  -0.00054   0.00000  -0.00254  -0.00255   2.10558
    A8        2.07392   0.00297   0.00000   0.01635   0.01635   2.09027
    A9        2.10109  -0.00243   0.00000  -0.01376  -0.01377   2.08733
   A10        2.11974   0.00271   0.00000   0.00693   0.00695   2.12668
   A11        2.08223  -0.00402   0.00000  -0.00918  -0.00920   2.07303
   A12        2.08116   0.00131   0.00000   0.00230   0.00229   2.08344
   A13        2.12013  -0.00042   0.00000   0.00047   0.00045   2.12058
   A14        2.08051   0.00031   0.00000   0.00038   0.00036   2.08088
   A15        2.08241   0.00012   0.00000  -0.00067  -0.00069   2.08171
   A16        2.11747   0.00288   0.00000   0.00764   0.00764   2.12511
   A17        2.08284  -0.00146   0.00000  -0.00388  -0.00389   2.07895
   A18        2.08277  -0.00142   0.00000  -0.00368  -0.00368   2.07908
   A19        2.12025  -0.00044   0.00000   0.00038   0.00036   2.12060
   A20        2.08224   0.00016   0.00000  -0.00048  -0.00049   2.08175
   A21        2.08056   0.00029   0.00000   0.00027   0.00026   2.08081
   A22        2.11882   0.00291   0.00000   0.00768   0.00770   2.12652
   A23        2.08179   0.00115   0.00000   0.00169   0.00168   2.08347
   A24        2.08255  -0.00407   0.00000  -0.00935  -0.00936   2.07319
   A25        2.10818  -0.00060   0.00000  -0.00261  -0.00262   2.10556
   A26        2.10044  -0.00234   0.00000  -0.01337  -0.01337   2.08707
   A27        2.07451   0.00294   0.00000   0.01604   0.01603   2.09055
   A28        2.09313   0.00437   0.00000   0.01123   0.01124   2.10436
   A29        2.09380  -0.00294   0.00000  -0.00981  -0.00981   2.08398
   A30        2.09626  -0.00143   0.00000  -0.00142  -0.00142   2.09484
   A31        2.09345   0.00442   0.00000   0.01127   0.01127   2.10472
   A32        2.09513  -0.00129   0.00000  -0.00048  -0.00048   2.09465
   A33        2.09459  -0.00314   0.00000  -0.01078  -0.01078   2.08381
   A34        2.10849  -0.00053   0.00000  -0.00275  -0.00278   2.10571
   A35        2.07413   0.00290   0.00000   0.01605   0.01605   2.09018
   A36        2.10055  -0.00236   0.00000  -0.01326  -0.01326   2.08730
   A37        2.08024  -0.00358   0.00000  -0.00751  -0.00752   2.07271
   A38        2.07994   0.00174   0.00000   0.00350   0.00347   2.08341
   A39        2.12297   0.00184   0.00000   0.00404   0.00407   2.12704
   A40        2.12044  -0.00017   0.00000   0.00050   0.00044   2.12088
   A41        2.08030   0.00019   0.00000   0.00039   0.00039   2.08068
   A42        2.08229  -0.00001   0.00000  -0.00069  -0.00069   2.08160
   A43        2.08050  -0.00084   0.00000  -0.00179  -0.00181   2.07869
   A44        2.08135  -0.00095   0.00000  -0.00225  -0.00225   2.07909
   A45        2.12129   0.00179   0.00000   0.00407   0.00408   2.12538
   A46        2.11879   0.00013   0.00000   0.00170   0.00165   2.12044
   A47        2.08236  -0.00002   0.00000  -0.00053  -0.00053   2.08182
   A48        2.08188  -0.00010   0.00000  -0.00098  -0.00098   2.08090
   A49        2.08154   0.00140   0.00000   0.00216   0.00214   2.08368
   A50        2.08113  -0.00376   0.00000  -0.00804  -0.00805   2.07308
   A51        2.12049   0.00236   0.00000   0.00591   0.00593   2.12641
   A52        2.10830  -0.00055   0.00000  -0.00271  -0.00273   2.10558
   A53        2.07387   0.00294   0.00000   0.01623   0.01623   2.09011
   A54        2.10096  -0.00239   0.00000  -0.01346  -0.01346   2.08750
    D1       -0.00861   0.00010   0.00000   0.00375   0.00380  -0.00481
    D2        3.13778  -0.00004   0.00000   0.00015   0.00018   3.13796
    D3        3.12986   0.00018   0.00000   0.00509   0.00513   3.13499
    D4       -0.00693   0.00004   0.00000   0.00149   0.00151  -0.00542
    D5        0.01198  -0.00024   0.00000  -0.00598  -0.00598   0.00600
    D6       -3.14037   0.00003   0.00000   0.00041   0.00044  -3.13993
    D7       -3.12650  -0.00033   0.00000  -0.00734  -0.00732  -3.13382
    D8        0.00434  -0.00006   0.00000  -0.00095  -0.00090   0.00344
    D9       -0.00593   0.00005   0.00000   0.00253   0.00259  -0.00334
   D10       -3.13753  -0.00016   0.00000  -0.00365  -0.00367  -3.14120
   D11        3.13087   0.00020   0.00000   0.00614   0.00621   3.13708
   D12       -0.00074  -0.00001   0.00000  -0.00003  -0.00005  -0.00078
   D13       -3.11276  -0.00045   0.00000  -0.01152  -0.01151  -3.12428
   D14        0.01701  -0.00028   0.00000  -0.00708  -0.00707   0.00994
   D15        0.01868  -0.00020   0.00000  -0.00508  -0.00510   0.01359
   D16       -3.13472  -0.00004   0.00000  -0.00064  -0.00066  -3.13538
   D17        3.11731   0.00036   0.00000   0.01135   0.01142   3.12873
   D18       -0.00626  -0.00006   0.00000   0.00015   0.00020  -0.00606
   D19       -0.01248   0.00023   0.00000   0.00699   0.00703  -0.00544
   D20       -3.13605  -0.00019   0.00000  -0.00421  -0.00419  -3.14023
   D21        3.13645   0.00001   0.00000   0.00154   0.00159   3.13804
   D22       -0.01353   0.00017   0.00000   0.00490   0.00492  -0.00861
   D23       -0.01670   0.00018   0.00000   0.00592   0.00596  -0.01074
   D24        3.11651   0.00034   0.00000   0.00928   0.00928   3.12579
   D25       -3.09505  -0.00079   0.00000  -0.01969  -0.01969  -3.11474
   D26        0.03080  -0.00058   0.00000  -0.01357  -0.01353   0.01727
   D27        0.02850  -0.00037   0.00000  -0.00848  -0.00845   0.02005
   D28       -3.12883  -0.00016   0.00000  -0.00235  -0.00230  -3.13113
   D29        3.12049   0.00036   0.00000   0.01032   0.01037   3.13086
   D30       -0.00287  -0.00009   0.00000  -0.00052  -0.00046  -0.00333
   D31       -0.00537   0.00015   0.00000   0.00420   0.00422  -0.00115
   D32       -3.12873  -0.00030   0.00000  -0.00664  -0.00661  -3.13534
   D33        3.13214   0.00007   0.00000   0.00301   0.00306   3.13520
   D34       -0.01955   0.00020   0.00000   0.00643   0.00648  -0.01307
   D35       -0.02487   0.00032   0.00000   0.00912   0.00915  -0.01572
   D36        3.10662   0.00045   0.00000   0.01254   0.01257   3.11920
   D37       -3.10269  -0.00074   0.00000  -0.01692  -0.01686  -3.11955
   D38        0.03083  -0.00062   0.00000  -0.01401  -0.01395   0.01688
   D39        0.02068  -0.00029   0.00000  -0.00609  -0.00604   0.01464
   D40       -3.12898  -0.00018   0.00000  -0.00318  -0.00314  -3.13212
   D41        3.13826   0.00016   0.00000   0.00262   0.00256   3.14082
   D42        0.00750  -0.00016   0.00000  -0.00389  -0.00385   0.00365
   D43        0.00474   0.00002   0.00000  -0.00035  -0.00038   0.00436
   D44       -3.12602  -0.00030   0.00000  -0.00685  -0.00679  -3.13281
   D45        3.12612   0.00018   0.00000   0.00586   0.00592   3.13203
   D46       -0.02550   0.00031   0.00000   0.00961   0.00967  -0.01582
   D47       -0.02338   0.00032   0.00000   0.00879   0.00881  -0.01456
   D48        3.10820   0.00045   0.00000   0.01254   0.01257   3.12076
   D49        0.01542  -0.00036   0.00000  -0.00809  -0.00806   0.00736
   D50       -3.12588  -0.00036   0.00000  -0.00715  -0.00709  -3.13297
   D51       -3.13685  -0.00008   0.00000  -0.00186  -0.00182  -3.13867
   D52        0.00503  -0.00007   0.00000  -0.00091  -0.00085   0.00418
   D53       -0.01657   0.00022   0.00000   0.00764   0.00774  -0.00883
   D54        3.13033   0.00005   0.00000   0.00310   0.00316   3.13349
   D55        3.12473   0.00022   0.00000   0.00669   0.00676   3.13150
   D56       -0.01156   0.00005   0.00000   0.00215   0.00219  -0.00937
   D57       -0.00244  -0.00005   0.00000   0.00052   0.00060  -0.00184
   D58       -3.13752  -0.00019   0.00000  -0.00405  -0.00405  -3.14158
   D59        3.13385   0.00012   0.00000   0.00509   0.00519   3.13904
   D60       -0.00123  -0.00001   0.00000   0.00052   0.00053  -0.00070
   D61        0.02245  -0.00036   0.00000  -0.00907  -0.00906   0.01339
   D62       -3.10886  -0.00049   0.00000  -0.01291  -0.01291  -3.12177
   D63       -3.12575  -0.00021   0.00000  -0.00431  -0.00430  -3.13005
   D64        0.02612  -0.00034   0.00000  -0.00815  -0.00815   0.01797
   D65       -0.00474   0.00008   0.00000   0.00355   0.00360  -0.00113
   D66       -3.12707  -0.00036   0.00000  -0.00808  -0.00804  -3.13511
   D67        3.12658   0.00019   0.00000   0.00733   0.00741   3.13399
   D68        0.00425  -0.00026   0.00000  -0.00430  -0.00423   0.00002
   D69        0.03015  -0.00059   0.00000  -0.01340  -0.01334   0.01681
   D70       -3.10110  -0.00070   0.00000  -0.01686  -0.01682  -3.11792
   D71       -3.13072  -0.00014   0.00000  -0.00174  -0.00168  -3.13240
   D72        0.02121  -0.00026   0.00000  -0.00521  -0.00516   0.01605
   D73       -0.00957   0.00028   0.00000   0.00660   0.00658  -0.00298
   D74       -3.13190  -0.00022   0.00000  -0.00544  -0.00544  -3.13733
   D75        3.12168   0.00039   0.00000   0.01006   0.01006   3.13174
   D76       -0.00064  -0.00011   0.00000  -0.00198  -0.00196  -0.00260
   D77        0.02786  -0.00056   0.00000  -0.01302  -0.01299   0.01487
   D78       -3.10515  -0.00069   0.00000  -0.01639  -0.01635  -3.12150
   D79       -3.13299  -0.00006   0.00000  -0.00098  -0.00097  -3.13397
   D80        0.01718  -0.00019   0.00000  -0.00435  -0.00433   0.01285
   D81       -0.00078   0.00009   0.00000   0.00158   0.00155   0.00077
   D82       -3.13145  -0.00022   0.00000  -0.00509  -0.00504  -3.13650
   D83        3.13223   0.00025   0.00000   0.00499   0.00494   3.13717
   D84        0.00156  -0.00006   0.00000  -0.00168  -0.00166  -0.00009
         Item               Value     Threshold  Converged?
 Maximum Force            0.038290     0.000450     NO 
 RMS     Force            0.007155     0.000300     NO 
 Maximum Displacement     0.123699     0.001800     NO 
 RMS     Displacement     0.032224     0.001200     NO 
 Predicted change in Energy=-1.016227D-02
 GradGradGradGradGradGradGradGradGradGradGradGradGradGradGradGradGradGrad

                          Input orientation:                          
 ---------------------------------------------------------------------
 Center     Atomic      Atomic             Coordinates (Angstroms)
 Number     Number       Type             X           Y           Z
 ---------------------------------------------------------------------
      1          6           0        4.891952    0.710902    0.058041
      2          6           0        4.892939   -0.711632    0.032963
      3          6           0        3.706919   -1.413088   -0.005477
      4          6           0        2.455697   -0.726419   -0.016751
      5          6           0        1.234025   -1.414651   -0.035010
      6          6           0       -0.000117   -0.727758   -0.030591
      7          6           0       -1.233743   -1.415544   -0.016659
      8          6           0       -2.455736   -0.728074    0.000500
      9          6           0       -3.705988   -1.415535    0.041369
     10          6           0       -4.892800   -0.714697    0.058395
     11          6           0       -4.893740    0.707826    0.026517
     12          6           0       -3.707912    1.409393   -0.011451
     13          6           0       -2.456428    0.723193   -0.017279
     14          6           0       -1.234886    1.411322   -0.031952
     15          6           0       -0.000520    0.724711   -0.028484
     16          6           0        1.232965    1.412383   -0.014785
     17          6           0        2.455004    0.724610    0.000366
     18          6           0        3.705219    1.411893    0.038619
     19          1           0        5.838418    1.258294    0.094750
     20          1           0        5.840177   -1.258754    0.045244
     21          1           0        3.723176   -2.506701   -0.024045
     22          1           0        1.237346   -2.508289   -0.046589
     23          1           0       -1.236295   -2.509226   -0.012243
     24          1           0       -3.720447   -2.509112    0.063516
     25          1           0       -5.839215   -1.261983    0.097981
     26          1           0       -5.841184    1.254700    0.032708
     27          1           0       -3.724538    2.502917   -0.035643
     28          1           0       -1.238353    2.505023   -0.039144
     29          1           0        1.235608    2.506004   -0.009104
     30          1           0        3.720348    2.505541    0.056747
 ---------------------------------------------------------------------
                    Distance matrix (angstroms):
                    1          2          3          4          5
     1  C    0.000000
     2  C    1.422756   0.000000
     3  C    2.433038   1.378464   0.000000
     4  C    2.829633   2.437794   1.427304   0.000000
     5  C    4.231674   3.726461   2.473071   1.402313   0.000000
     6  C    5.099994   4.893495   3.769936   2.455853   1.412425
     7  C    6.484713   6.167187   4.940675   3.753247   2.467836
     8  C    7.487489   7.348765   6.200612   4.911464   3.753263
     9  C    8.857007   8.627693   7.413055   6.200372   4.940603
    10  C    9.888059   9.785773   8.628267   7.348891   6.167385
    11  C    9.785744   9.889084   8.858365   7.488201   6.485229
    12  C    8.628464   8.858632   7.933861   6.523174   5.691969
    13  C    7.348777   7.488287   6.523088   5.121558   4.264989
    14  C    6.167401   6.485475   5.692050   4.265041   3.752553
    15  C    4.893256   5.100274   4.279698   2.852879   2.470023
    16  C    3.726334   4.231917   3.755505   2.463645   2.827106
    17  C    2.437669   2.829732   2.477312   1.451130   2.463428
    18  C    1.378442   2.433119   2.825326   2.477246   3.755206
    19  H    1.093976   2.185945   3.419008   3.923559   5.325590
    20  H    2.186055   1.093962   2.139435   3.426649   4.609488
    21  H    3.424288   2.143331   1.093892   2.185398   2.718193
    22  H    4.871374   4.074023   2.701841   2.158780   1.093704
    23  H    6.923119   6.387558   5.063292   4.099906   2.702053
    24  H    9.194670   8.798994   7.508115   6.428779   5.074874
    25  H   10.911087  10.746453   9.547890   8.312976   7.076137
    26  H   10.746933  10.912738   9.913870   8.530271   7.562314
    27  H    8.801363   9.197768   8.400152   6.973111   6.319389
    28  H    6.388189   6.924219   6.309393   4.908027   4.634276
    29  H    4.073788   4.871449   4.633213   3.455030   3.920740
    30  H    2.143218   3.424286   3.919146   3.471355   4.643073
                    6          7          8          9         10
     6  C    0.000000
     7  C    1.412473   0.000000
     8  C    2.455817   1.402204   0.000000
     9  C    3.769840   2.472925   1.427376   0.000000
    10  C    4.893510   3.726327   2.437788   1.378400   0.000000
    11  C    5.100168   4.231564   2.829549   2.433030   1.422881
    12  C    4.279664   3.755237   2.477267   2.825422   2.433228
    13  C    2.852876   2.463565   1.451376   2.477699   2.830046
    14  C    2.469883   2.826907   2.463441   3.755374   4.231838
    15  C    1.452471   2.470156   2.852983   4.279722   5.100378
    16  C    2.470008   3.752575   4.264775   5.691531   6.484969
    17  C    2.852709   4.264669   5.121099   6.522248   7.487670
    18  C    4.279300   5.691292   6.522138   7.932234   8.857128
    19  H    6.168355   7.561566   8.529217   9.912007  10.911144
    20  H    5.864873   7.075928   8.312990   9.547452  10.746765
    21  H    4.126450   5.075602   6.429858   7.509154   8.800746
    22  H    2.168377   2.702086   4.100029   5.063437   6.388011
    23  H    2.168433   1.093694   2.158635   2.701558   4.073740
    24  H    4.125887   2.717723   2.185306   1.093898   2.143446
    25  H    5.864896   4.609457   3.426732   2.139496   1.093979
    26  H    6.168648   5.325519   3.923479   3.418961   2.186005
    27  H    4.930375   4.643140   3.471378   3.919252   3.424430
    28  H    3.461817   3.920634   3.454925   4.633193   4.871458
    29  H    3.461891   4.634252   4.907685   6.308754   6.923501
    30  H    4.929879   6.318490   6.971617   8.397948   9.195448
                   11         12         13         14         15
    11  C    0.000000
    12  C    1.378342   0.000000
    13  C    2.437754   1.427276   0.000000
    14  C    3.726330   2.473111   1.402106   0.000000
[...]
 816,0.00044764,-0.00000018,0.00139114,-0.00153829,0.00000207,0.0032359
 0,-0.02708594,0.00001673,-0.05785378,-0.00070983,-0.00000539,0.0042117
 1,0.02882605,-0.00001820,-0.00427612,0.00141046,-0.00000455,-0.0007254
 2,0.00003353,-0.00000007,-0.00458157,-0.00094646,-0.00000192,0.0004251
 5,-0.00136622,0.00000093,0.00020672,-0.00006167,0.00000015,-0.00005372
 ,0.00004723,-0.00000005,-0.00001709,-0.00002587,0.00000001,-0.00000412
 ,0.00000995,0.,0.00000154,0.00000168,0.,0.00000076,0.00000090,0.,-0.00
 000304,0.00000106,0.,-0.00002914,0.00001245,-0.00000002,-0.00040602,0.
 00083222,-0.00000069,0.05727834,-0.00005011,0.00001509,-0.00000003,-0.
 00001989,-0.00004321,0.00000002,0.00003618,-0.00003880,0.00000002,-0.0
 0006513,-0.00001967,0.,0.00009955,-0.00012489,0.00000019,-0.00042087,0
 .00027358,-0.00000040,0.00198858,0.00071658,-0.00000144,0.00214560,-0.
 01211629,0.00001043,-0.00020905,-0.33435245,0.00018468,-0.00285331,-0.
 01180933,0.00000972,0.00317088,0.00083253,0.00000573,-0.00015893,0.000
 74876,-0.00000086,-0.00273803,0.00089374,0.00000129,0.00063452,-0.0006
 9253,0.00000070,0.00001996,0.00017977,-0.00000023,0.00004385,0.0001080
 2,-0.00000003,-0.00008278,0.00001664,-0.00000004,0.00003080,0.00004173
 ,-0.00000002,-0.00000679,-0.00000045,0.,-0.00000933,0.00000219,0.,-0.0
 0000107,0.00001030,0.,-0.00001744,0.00002286,-0.00000002,-0.00082669,0
 .00051766,-0.00000044,-0.00052861,0.35474764,0.00000003,-0.00000002,-0
 .00000355,0.00000002,0.00000002,-0.00000329,-0.00000002,0.00000002,-0.
 00001587,0.00000005,0.00000002,0.00000113,-0.00000011,0.00000015,0.000
 12984,0.00000036,-0.00000015,-0.00017838,-0.00000012,-0.00000245,-0.00
 250820,-0.00000146,0.00000209,0.00366940,-0.00000571,0.00018453,-0.037
 40869,0.00000151,0.00001877,0.00512866,-0.00000565,0.00000523,0.008594
 14,0.00000005,-0.00000080,-0.00055672,-0.00000081,0.00000180,0.0042180
 1,-0.00000031,0.00000013,0.00013594,0.00000010,-0.00000025,-0.00020073
 ,-0.00000005,-0.00000003,0.00003306,0.00000005,-0.00000003,-0.00001264
 ,-0.00000002,-0.00000002,-0.00000217,0.,0.,0.00000111,0.,0.,0.00000528
 ,0.,0.,0.00000370,0.,0.,0.00000233,0.00000035,0.00000003,0.00018433,0.
 00000950,-0.00020521,0.02513602,-0.00002342,0.00003459,-0.00000003,-0.
 00004211,-0.00001875,0.,0.00002926,-0.00004440,0.00000003,-0.00009758,
 0.00000859,-0.00000007,0.00002369,-0.00014534,0.00000012,-0.00039270,0
 .00026797,0.,-0.00046416,-0.00112779,0.00000052,-0.00220024,0.00414585
 ,-0.00000594,-0.01931864,-0.01597747,0.00000308,-0.26932413,-0.1189231
 1,0.00000790,0.00360702,0.00289312,-0.00000164,0.00128432,0.00032513,-
 0.00000098,0.00018314,0.00050210,-0.00000013,0.00024535,-0.00002815,0.
 00000024,-0.00007767,0.00005433,-0.00000008,0.00008584,0.00003996,-0.0
 0000002,-0.00004402,0.00003390,-0.00000003,0.00003167,0.00002795,0.,-0
 .00000819,-0.00000217,0.,-0.00000903,0.00000088,0.,0.00000075,0.000009
 33,0.,0.00000289,0.00001520,0.,0.00001189,0.00006447,-0.00000012,0.001
 21439,0.00017342,0.00000185,0.28462620,0.00001744,-0.00003372,0.000000
 03,0.00001132,0.00004096,-0.00000003,-0.00003380,0.00000031,0.,0.00007
 838,0.00005321,0.00000008,-0.00008298,0.00007155,-0.00000012,0.0003146
 5,-0.00003907,-0.00000051,0.00015316,0.00066834,-0.00000025,0.00298910
 ,-0.00158977,0.00000780,0.01562816,0.01183800,0.00000002,-0.11971454,-
 0.12624090,0.00002086,-0.02857914,-0.01004987,0.,0.00172944,-0.0054711
 9,0.00000640,0.00095551,-0.00022049,0.00000012,-0.00033302,0.00010855,
 -0.00000050,0.00016181,-0.00011886,0.00000017,-0.00011267,0.00001643,0
 .,0.00006838,-0.00006348,0.00000004,-0.00003583,0.00000508,-0.00000002
 ,-0.00000217,-0.00000123,0.,-0.00000089,0.00000157,0.,-0.00000090,0.00
 000220,0.,-0.00000471,0.00000256,-0.00000002,-0.00001197,-0.00001864,0
 .00000020,-0.00044905,0.00093992,-0.00000422,0.12801468,0.12932250,-0.
 00000002,0.00000003,0.00000354,-0.00000001,-0.00000004,-0.00001953,0.0
 0000002,0.,0.00001704,-0.00000012,0.00000006,0.00014205,0.00000008,-0.
 00000014,-0.00008458,-0.00000002,-0.00000052,-0.00100254,-0.00000028,-
 0.00000062,0.00018903,-0.00000522,0.00000813,0.00958152,-0.00001658,-0
 .00000900,0.00470732,0.00000840,0.00002108,-0.03779508,0.00001794,0.00
 000897,0.00304638,-0.00000186,0.00000600,0.00401775,-0.00000041,-0.000
 00001,-0.00046960,0.00000043,-0.00000041,-0.00053923,-0.00000015,0.000
 00014,0.00008602,0.00000008,0.00000004,0.00005761,-0.00000005,0.000000
 03,-0.00002349,0.00000004,0.,-0.00001553,0.,0.,0.00000439,0.,0.,-0.000
 00194,0.,0.,0.00000528,0.00000001,-0.00000001,-0.00002241,-0.00000007,
 0.00000022,0.00030067,0.00000223,-0.00000404,-0.00563143,-0.00000568,-
 0.00002806,0.02549427,-0.00004212,0.00001869,-0.00000002,-0.00002339,-
 0.00003459,0.00000001,0.00003167,-0.00002793,0.00000003,-0.00004395,-0
 .00003389,0.00000002,0.00008579,-0.00003991,0.00000003,-0.00007752,-0.
 00005430,-0.00000001,0.00024509,0.00002825,0.00000021,0.00018417,-0.00
 050182,0.00000050,0.00128577,-0.00032035,-0.00000058,0.00358883,-0.002
 88346,0.00000195,-0.26949301,0.11882161,-0.00014005,-0.01931887,0.0159
 5540,-0.00001678,-0.00219518,-0.00414629,-0.00000078,-0.00046485,0.001
 12698,-0.00000089,-0.00039229,-0.00026822,0.00000034,0.00002353,0.0001
 4531,-0.00000006,-0.00009751,-0.00000870,-0.00000006,0.00002920,0.0000
 4442,-0.00000002,-0.00000903,-0.00000089,0.,-0.00000819,0.00000216,0.,
 0.00000153,0.00000679,0.,-0.00000119,0.00000918,0.,-0.00002128,0.00003
 285,-0.00000004,0.00004898,-0.00017315,0.00000007,0.00062664,0.0004685
 6,0.00000054,0.28480739,-0.00001137,0.00004096,-0.00000004,-0.00001743
 ,-0.00003375,0.00000002,0.00003585,0.00000509,0.,-0.00006836,-0.000063
 55,0.,0.00011272,0.00001648,0.00000006,-0.00016178,-0.00011902,0.00000
 008,0.00033312,0.00010880,-0.00000031,-0.00095523,-0.00022153,-0.00000
 043,-0.00172465,-0.00547264,0.00000541,0.02858880,-0.01003167,0.000016
 30,0.11961303,-0.12607193,0.00008906,-0.01565023,0.01183823,-0.0000089
 0,-0.00298953,-0.00159482,0.00000610,-0.00015396,0.00066903,-0.0000003
 4,-0.00031490,-0.00003948,-0.00000069,0.00008294,0.00007171,-0.0000000
 7,-0.00007849,0.00005315,0.00000003,0.00003382,0.00000036,0.00000002,0
 .00000088,0.00000157,0.,0.00000216,-0.00000123,0.,-0.00000168,-0.00000
 045,0.,-0.00000700,0.00000410,0.,-0.00006043,0.00003928,0.,0.00129847,
 -0.00062271,0.00000087,-0.00046907,0.00135661,-0.00000240,-0.12790451,
 0.12914122,0.,-0.00000003,-0.00001953,0.,0.00000001,0.00000354,0.,-0.0
 0000002,-0.00001553,0.00000004,0.00000002,-0.00002349,-0.00000006,0.00
 000001,0.00005761,0.00000005,0.00000011,0.00008602,0.00000002,-0.00000
 040,-0.00053923,0.00000078,-0.00000030,-0.00046960,0.00000029,0.000005
 81,0.00401775,-0.00001763,0.00000731,0.00304637,-0.00014055,0.00008883
 ,-0.03779516,0.00000288,0.00000012,0.00470732,-0.00000150,0.00000577,0
 .00958153,-0.00000009,0.00000002,0.00018903,0.00000037,-0.00000068,-0.
 00100254,-0.00000002,-0.00000006,-0.00008458,-0.00000002,0.00000005,0.
 00014205,-0.00000002,0.00000002,0.00001704,0.,0.,-0.00000194,0.,0.,0.0
 0000439,0.,0.,0.00000111,0.,0.,-0.00000055,0.00000002,0.00000002,0.000
 05129,-0.00000085,0.00000045,0.00018798,0.00000112,-0.00000213,-0.0022
 8732,0.00015359,-0.00010099,0.02549436,0.00002215,0.00000236,0.,-0.000
 01528,0.00002292,-0.00000002,-0.00000409,-0.00000998,0.,-0.00001717,0.
 00002585,-0.00000002,-0.00005366,-0.00004735,0.,0.00020669,0.00006169,
 0.00000008,0.00042463,0.00136701,-0.00000077,-0.00458418,0.00094258,-0
 .00000310,-0.00072551,-0.00003457,-0.00000003,-0.00427287,-0.00141408,
 -0.00000279,0.00423009,-0.02881469,0.00001767,-0.05785457,0.00090559,-
 0.00000640,0.00321824,0.02709680,-0.00001699,0.00139146,0.00153877,0.0
 0000016,0.00015818,-0.00044772,0.00000037,-0.00004862,0.00002216,-0.00
 000006,0.00004149,-0.00001245,0.00000002,-0.00000823,-0.00000396,0.,0.
 00000075,-0.00000090,0.,0.00000153,-0.00000168,0.,0.00000004,-0.000000
 84,0.,0.00001542,-0.00002072,0.00000001,-0.00034319,0.00020864,-0.0000
 0030,0.00011317,-0.00000824,0.00000038,0.00004978,-0.00129799,0.000000
 77,0.00121419,0.00044924,0.00000167,0.05727775,0.00001994,-0.00004319,
 0.00000003,0.00005008,0.00001514,0.,-0.00003083,0.00004170,-0.00000004
 ,0.00008276,0.00001672,0.,-0.00004396,0.00010796,-0.00000006,-0.000019
 93,0.00017981,-0.00000024,-0.00063373,-0.00069201,0.00000033,0.0027341
 5,0.00089634,0.00000285,0.00015788,0.00074885,-0.00000077,-0.00317450,
 0.00082928,0.00000392,0.00286466,-0.01182772,0.00001137,0.00040480,-0.
 33435166,0.00018485,-0.00213474,-0.01209862,0.00000920,-0.00198810,0.0
 0071626,-0.00000257,0.00042079,0.00027356,-0.00000016,-0.00009949,-0.0
 0012494,0.00000013,0.00006518,-0.00001964,0.00000003,-0.00003615,-0.00
 003883,0.,0.00000933,0.00000220,0.,0.00000679,-0.00000045,0.,-0.000000
 84,-0.00000753,0.,-0.00002207,-0.00000435,0.,0.00019667,-0.00012077,0.
 00000030,0.00000840,-0.00011378,-0.00000067,0.00017363,-0.00062351,0.0
 0000055,-0.00017323,0.00094011,-0.00000414,0.00031801,0.35474824,0.,0.
 00000003,-0.00000329,-0.00000003,0.,-0.00000355,0.00000002,-0.00000003
 ,-0.00000217,-0.00000005,-0.00000001,-0.00001264,0.,-0.00000006,0.0000
 3306,0.00000013,-0.00000022,-0.00020073,0.00000048,0.00000091,0.000135
 94,-0.00000421,0.00000234,0.00421801,-0.00000015,-0.00000082,-0.000556
 72,-0.00000170,0.00000443,0.00859415,-0.00000204,0.00000232,0.00512867
 ,-0.00000609,0.00018500,-0.03740869,0.00000120,0.00001754,0.00366939,0
 .00000235,-0.00000157,-0.00250820,-0.00000017,-0.00000041,-0.00017838,
 0.00000001,0.00000016,0.00012984,-0.00000003,0.,0.00000113,0.00000002,
 0.00000001,-0.00001587,0.,0.,0.00000528,0.,0.,0.00000111,0.,0.,0.00000
 171,0.00000001,0.,0.00001977,-0.00000030,0.00000030,0.00026380,0.00000
 037,-0.00000067,-0.00119455,-0.00000015,0.00000013,0.00018798,0.000002
 06,-0.00000396,-0.00563143,0.00000898,-0.00020497,0.02513602,0.0000478
 4,-0.00000616,0.00000002,-0.00004040,0.00006330,-0.00000005,-0.0000536
 8,-0.00007798,0.00000002,0.00020275,0.00011340,0.00000005,0.00039489,0
 .00131482,-0.00000074,-0.00445608,0.00092188,-0.00000335,-0.00074831,0
 .00000547,-0.00000006,-0.00439558,-0.00100281,-0.00000244,0.00039206,-
 0.00127026,0.00000087,0.00014316,-0.00017802,0.00000022,0.00017798,0.0
 0043579,-0.00000021,0.00119360,-0.00176218,0.00000269,0.00359296,-0.02
 727432,0.00001664,-0.05783010,0.00031287,-0.00000630,0.00342408,0.0272
 3052,-0.00001718,0.00128770,0.00166847,0.00000031,0.00017675,-0.000459
 32,0.00000038,-0.00004956,0.00001534,-0.00000009,0.00000289,-0.0000047
 1,0.00000001,-0.00000119,-0.00000700,0.,0.00001542,-0.00002207,0.00000
 001,-0.00033653,0.00020213,-0.00000031,0.00005271,-0.00000187,0.000000
 34,-0.00034291,-0.00019682,-0.00000005,-0.00002130,0.00006039,-0.00000
 006,0.00001193,0.00001199,-0.00000009,-0.00040602,0.00082604,-0.000000
 68,0.05802719,0.00003096,-0.00009784,0.00000007,0.00011028,0.00001889,
 0.,-0.00004447,0.00011763,-0.00000006,0.00001186,0.00018651,-0.0000002
 6,-0.00063461,-0.00072513,0.00000035,0.00281058,0.00101601,0.00000345,
 0.00000189,0.00062809,-0.00000074,-0.00290076,0.00100967,0.00000250,0.
 00063836,-0.00072091,0.00000070,-0.00004956,0.00021405,-0.00000030,-0.
 00029697,0.00004251,-0.00000014,0.00222355,0.00076018,-0.00000258,0.00
 174951,-0.01278650,0.00001141,0.00018595,-0.33196167,0.00018391,-0.001
 83544,-0.01240122,0.00000984,-0.00211874,0.00070972,-0.00000319,0.0003
 8871,0.00020703,-0.00000012,-0.00007400,-0.00009181,0.00000018,0.00001
 520,0.00000256,-0.00000001,0.00000918,0.00000410,0.,-0.00002072,-0.000
 00435,0.,0.00020213,-0.00012713,0.00000033,0.00000202,-0.00016699,-0.0
 0000061,-0.00020880,-0.00012105,0.00000018,-0.00003290,0.00003930,0.,-
 0.00006445,-0.00001868,0.00000018,-0.00083288,0.00051766,-0.00000045,-
 0.00008955,0.35320416,0.,0.00000006,-0.00000389,-0.00000007,0.,-0.0000
 1959,0.,-0.00000007,0.00004858,0.00000012,-0.00000023,-0.00023414,0.00
 000047,0.00000091,0.00013496,-0.00000452,0.00000291,0.00526597,-0.0000
 0006,-0.00000073,-0.00055523,-0.00000126,0.00000304,0.00635207,-0.0000
 0032,0.00000016,0.00011379,0.00000014,-0.00000034,-0.00024539,0.000000
 25,0.00000006,-0.00005361,0.00000021,-0.00000372,-0.00440452,-0.000001
 42,0.00000313,0.00475009,-0.00000623,0.00018395,-0.03642518,0.00000091
 ,0.00001813,0.00424993,0.00000267,-0.00000211,-0.00345060,-0.00000014,
 -0.00000036,-0.00016524,-0.00000003,0.00000020,0.00022693,0.,-0.000000
 02,-0.00002241,0.,0.,-0.00000055,0.00000001,0.,0.00001977,-0.00000031,
 0.00000033,0.00030494,0.00000034,-0.00000061,-0.00114961,-0.00000004,0
 .00000018,0.00026380,0.,0.00000002,0.00005129,-0.00000004,0.00000020,0
 .00030067,0.00000035,0.00000003,0.00018433,0.00000969,-0.00020467,0.02
 425819,0.00017808,-0.00043570,0.00000034,0.00014300,0.00017797,0.,0.00
 039161,0.00127104,-0.00000071,-0.00439834,0.00099898,-0.00000369,-0.00
 074831,-0.00000644,-0.00000005,-0.00445343,-0.00092576,-0.00000220,0.0
 0039537,-0.00131403,0.00000089,0.00020284,-0.00011339,0.00000020,-0.00
 005376,0.00007786,-0.00000008,-0.00004027,-0.00006334,0.00000003,0.000
 04786,0.00000626,0.00000001,-0.00004960,-0.00001531,-0.00000007,0.0001
 7670,0.00045930,-0.00000019,0.00128738,-0.00166806,0.00000239,0.003442
 05,-0.02721931,0.00001670,-0.05782988,-0.00011879,-0.00000604,0.003574
 88,0.02728590,-0.00001731,0.00119393,0.00176249,0.00000050,0.00001189,
 -0.00001197,-0.00000007,-0.00002128,-0.00006043,0.00000002,-0.00034319
 ,0.00019667,-0.00000030,0.00005271,0.00000202,0.00000034,-0.00033625,-
 0.00020228,-0.00000006,0.00001539,0.00002209,-0.00000001,-0.00000119,0
 .00000700,0.,0.00000290,0.00000471,0.,-0.00002915,0.00001741,-0.000000
 02,-0.00043313,0.00081122,-0.00000069,0.05802721,0.00029707,0.00004241
 ,0.00000003,0.00004951,0.00021421,-0.00000027,-0.00063757,-0.00072046,
 0.00000034,0.00289693,0.00101244,0.00000415,-0.00000287,0.00062808,-0.
 00000074,-0.00281445,0.00101336,0.00000184,0.00063540,-0.00072561,0.00
 000072,-0.00001185,0.00018642,-0.00000027,0.00004435,0.00011771,-0.000
 00003,-0.00011033,0.00001877,-0.00000006,-0.00003086,-0.00009785,0.000
 00005,0.00007403,-0.00009177,0.00000022,-0.00038873,0.00020708,-0.0000
 0034,0.00211915,0.00071004,-0.00000198,0.00184666,-0.01241920,0.000010
 90,0.00000813,-0.33196189,0.00018386,-0.00173792,-0.01276841,0.0000104
 0,-0.00222324,0.00075986,-0.00000385,0.00006447,-0.00001864,0.00000022
 ,0.00003285,0.00003928,0.00000002,0.00020864,-0.00012077,0.00000030,-0
 .00000187,-0.00016699,-0.00000061,-0.00020228,-0.00012742,0.00000021,0
 .00002074,-0.00000432,0.00000002,-0.00000918,0.00000410,0.,-0.00001520
 ,0.00000255,-0.00000002,-0.00001249,0.00002286,-0.00000002,-0.00081189
 ,0.00052235,-0.00000043,-0.00011942,0.35320414,-0.00000012,-0.00000018
 ,-0.00005361,0.00000008,-0.00000024,-0.00024539,0.00000048,0.00000088,
 0.00011379,-0.00000487,0.00000361,0.00635207,-0.00000005,-0.00000074,-
 0.00055523,-0.00000102,0.00000238,0.00526597,-0.00000032,0.00000016,0.
 00013496,0.00000013,-0.00000029,-0.00023414,-0.00000006,-0.00000002,0.
 00004858,0.00000006,-0.00000004,-0.00001959,0.00000003,0.00000006,-0.0
 0000389,-0.00000012,0.00000019,0.00022693,0.00000034,-0.00000010,-0.00
 016524,0.00000003,-0.00000306,-0.00345060,-0.00000138,0.00000260,0.004
 24994,-0.00000611,0.00018383,-0.03642518,0.00000075,0.00001869,0.00475
 008,0.00000298,-0.00000271,-0.00440452,-0.00000012,0.00000020,0.000300
 67,-0.00000004,0.,0.00005129,-0.00000030,0.00000030,0.00026380,0.00000
 034,-0.00000061,-0.00114961,-0.00000006,0.00000021,0.00030494,-0.00000
 001,0.00000002,0.00001977,0.,0.,-0.00000055,0.00000002,-0.00000001,-0.
 00002241,0.,0.,0.00000233,0.00000032,0.00000003,0.00020233,0.00000971,
 -0.00020468,0.02425819,0.00421171,0.02882605,-0.00001820,-0.00427612,0
 .00141046,-0.00000455,-0.00072542,0.00003353,-0.00000007,-0.00458157,-
 0.00094646,-0.00000192,0.00042515,-0.00136622,0.00000093,0.00020672,-0
 .00006167,0.00000015,-0.00005372,0.00004723,-0.00000005,-0.00001709,-0
 .00002587,0.00000001,-0.00000412,0.00000995,0.,-0.00001523,-0.00002294
 ,0.00000001,0.00002217,-0.00000232,0.,-0.00000826,0.00000399,0.,0.0000
 4153,0.00001249,0.,-0.00004867,-0.00002210,-0.00000004,0.00015816,0.00
 044764,-0.00000018,0.00139114,-0.00153829,0.00000207,0.00323590,-0.027
 08594,0.00001673,-0.05785378,-0.00070983,-0.00000539,0.00121439,-0.000
 44905,0.00000223,0.00004898,0.00129847,-0.00000085,0.00011317,0.000008
 40,0.00000037,-0.00034291,-0.00020880,-0.00000004,0.00001539,0.0000207
 4,-0.00000001,0.00000004,0.00000084,0.,0.00000154,0.00000168,0.,0.0000
 0076,0.00000090,0.,-0.00000304,0.00000106,0.,-0.00002914,0.00001245,-0
 .00000002,-0.00040602,0.00083222,-0.00000069,0.05727834,-0.00285331,-0
 .01180933,0.00000972,0.00317088,0.00083253,0.00000573,-0.00015893,0.00
 074876,-0.00000086,-0.00273803,0.00089374,0.00000129,0.00063452,-0.000
 69253,0.00000070,0.00001996,0.00017977,-0.00000023,0.00004385,0.000108
 02,-0.00000003,-0.00008278,0.00001664,-0.00000004,0.00003080,0.0000417
 3,-0.00000002,-0.00005011,0.00001509,-0.00000003,-0.00001989,-0.000043
 21,0.00000002,0.00003618,-0.00003880,0.00000002,-0.00006513,-0.0000196
 7,0.,0.00009955,-0.00012489,0.00000019,-0.00042087,0.00027358,-0.00000
 040,0.00198858,0.00071658,-0.00000144,0.00214560,-0.01211629,0.0000104
 3,-0.00020905,-0.33435245,0.00018468,0.00017342,0.00093992,-0.00000404
 ,-0.00017315,-0.00062271,0.00000045,-0.00000824,-0.00011378,-0.0000006
 7,-0.00019682,-0.00012105,0.00000018,0.00002209,-0.00000432,0.00000002
 ,0.00000084,-0.00000752,0.,-0.00000679,-0.00000045,0.,-0.00000933,0.00
 000219,0.,-0.00000107,0.00001030,0.,-0.00001744,0.00002286,-0.00000002
 ,-0.00082669,0.00051766,-0.00000044,-0.00052861,0.35474764,0.00000151,
 0.00001877,0.00512866,-0.00000565,0.00000523,0.00859414,0.00000005,-0.
 00000080,-0.00055672,-0.00000081,0.00000180,0.00421801,-0.00000031,0.0
 0000013,0.00013594,0.00000010,-0.00000025,-0.00020073,-0.00000005,-0.0
 0000003,0.00003306,0.00000005,-0.00000003,-0.00001264,-0.00000002,-0.0
 0000002,-0.00000217,0.00000003,-0.00000002,-0.00000355,0.00000002,0.00
 000002,-0.00000329,-0.00000002,0.00000002,-0.00001587,0.00000005,0.000
 00002,0.00000113,-0.00000011,0.00000015,0.00012984,0.00000036,-0.00000
 015,-0.00017838,-0.00000012,-0.00000245,-0.00250820,-0.00000146,0.0000
 0209,0.00366940,-0.00000571,0.00018453,-0.03740869,0.00000185,-0.00000
 422,-0.00563143,0.00000007,0.00000087,0.00018798,0.00000038,-0.0000006
 7,-0.00119455,-0.00000005,0.00000018,0.00026380,-0.00000001,0.00000002
 ,0.00001977,0.,0.,0.00000171,0.,0.,0.00000111,0.,0.,0.00000528,0.,0.,0
 .00000370,0.,0.,0.00000233,0.00000035,0.00000003,0.00018433,0.00000950
 ,-0.00020521,0.02513602\\0.00000893,-0.00000214,0.,0.00000893,0.000002
 15,0.,-0.00001379,0.00001097,-0.00000001,0.00001002,-0.00001992,0.0000
 0002,0.00000075,0.00001836,-0.00000001,0.,-0.00002027,0.00000001,-0.00
 000076,0.00001836,-0.00000001,-0.00001001,-0.00001993,0.,0.00001378,0.
 00001098,0.,-0.00000893,0.00000214,0.,-0.00000893,-0.00000215,0.,0.000
 01379,-0.00001097,0.00000001,-0.00001002,0.00001992,-0.00000002,-0.000
 00075,-0.00001836,0.00000001,0.,0.00002027,-0.00000001,0.00000076,-0.0
 0001836,0.00000001,0.00001001,0.00001993,0.,-0.00001378,-0.00001098,0.
 ,-0.00000280,-0.00000536,0.,-0.00000280,0.00000536,0.,-0.00000531,-0.0
 0000008,0.,-0.00000353,-0.00000332,0.,0.00000354,-0.00000331,0.,0.0000
 0531,-0.00000007,0.,0.00000280,0.00000536,0.,0.00000280,-0.00000536,0.
 ,0.00000531,0.00000008,0.,0.00000353,0.00000332,0.,-0.00000354,0.00000
 331,0.,-0.00000531,0.00000007,0.\\\@
 The archive entry for this job was punched.


 A MUSTACHE HAIR ACROSS A CHIP IS LIKE A REDWOOD
 TREE FALLING THROUGH A HOUSING PROJECT.
 - AN IBM MANAGER IN EAST FISHKILL, NEW YORK
   AS QUOTED IN "FROM SANDS TO CIRCUITS", IBM INNOVATION JANUARY 1985.
 Job cpu time:       0 days  0 hours 13 minutes 32.4 seconds.
 Elapsed time:       0 days  0 hours  0 minutes 50.8 seconds.
 File lengths (MBytes):  RWF=    127 Int=      0 D2E=      0 Chk=      8 Scr=      1
 Normal termination of Gaussian 16 at Thu Jul 11 06:33:25 2024.
