 Entering Gaussian System, Link 0=g16
 Initial command:
 /opt/g16/l1.exe "/tmp/Gau-1142311.inp" -scrdir="/tmp/"
 Entering Link 1 = /opt/g16/l1.exe PID=   1142313.
  
 Copyright (c) 1988-2019, Gaussian, Inc.  All Rights Reserved.
  
 This is part of the Gaussian(R) 16 program.  It is based on
 the Gaussian(R) 09 system (copyright 2009, Gaussian, Inc.),
 the Gaussian(R) 03 system (copyright 2003, Gaussian, Inc.),
 the Gaussian(R) 98 system (copyright 1998, Gaussian, Inc.),
 the Gaussian(R) 94 system (copyright 1995, Gaussian, Inc.),
 the Gaussian 92(TM) system (copyright 1992, Gaussian, Inc.),
 the Gaussian 90(TM) system (copyright 1990, Gaussian, Inc.),
 the Gaussian 88(TM) system (copyright 1988, Gaussian, Inc.),
 the Gaussian 86(TM) system (copyright 1986, Carnegie Mellon
 University), and the Gaussian 82(TM) system (copyright 1983,
 Carnegie Mellon University). Gaussian is a federally registered
 trademark of Gaussian, Inc.
  
 This software contains proprietary and confidential information,
 including trade secrets, belonging to Gaussian, Inc.
  
 This software is provided under written license and may be
 used, copied, transmitted, or stored only in accord with that
 written license.
  
 The following legend is applicable only to US Government
 contracts under FAR:
  
                    RESTRICTED RIGHTS LEGEND
  
 Use, reproduction and disclosure by the US Government is
 subject to restrictions as set forth in subparagraphs (a)
 and (c) of the Commercial Computer Software - Restricted
 Rights clause in FAR 52.227-19.
  
 Gaussian, Inc.
 340 Quinnipiac St., Bldg. 40, Wallingford CT 06492
  
  
 ---------------------------------------------------------------
 Warning -- This program may not be used in any manner that
 competes with the business of Gaussian, Inc. or will provide
 assistance to any competitor of Gaussian, Inc.  The licensee
 of this program is prohibited from giving any competitor of
 Gaussian, Inc. access to this program.  By using this program,
 the user acknowledges that Gaussian, Inc. is engaged in the
 business of creating and licensing software in the field of
 computational chemistry and represents and warrants to the
 licensee that it is not a competitor of Gaussian, Inc. and that
 it will not use this program in any manner prohibited above.
 ---------------------------------------------------------------
  

 Cite this work as:
 Gaussian 16, Revision C.01,
 M. J. Frisch, G. W. Trucks, H. B. Schlegel, G. E. Scuseria, 
 M. A. Robb, J. R. Cheeseman, G. Scalmani, V. Barone, 
 G. A. Petersson, H. Nakatsuji, X. Li, M. Caricato, A. V. Marenich, 
 J. Bloino, B. G. Janesko, R. Gomperts, B. Mennucci, H. P. Hratchian, 
 J. V. Ortiz, A. F. Izmaylov, J. L. Sonnenberg, D. Williams-Young, 
 F. Ding, F. Lipparini, F. Egidi, J. Goings, B. Peng, A. Petrone, 
 T. Henderson, D. Ranasinghe, V. G. Zakrzewski, J. Gao, N. Rega, 
 G. Zheng, W. Liang, M. Hada, M. Ehara, K. Toyota, R. Fukuda, 
 J. Hasegawa, M. Ishida, T. Nakajima, Y. Honda, O. Kitao, H. Nakai, 
 T. Vreven, K. Throssell, J. A. Montgomery, Jr., J. E. Peralta, 
 F. Ogliaro, M. J. Bearpark, J. J. Heyd, E. N. Brothers, K. N. Kudin, 
 V. N. Staroverov, T. A. Keith, R. Kobayashi, J. Normand, 
 K. Raghavachari, A. P. Rendell, J. C. Burant, S. S. Iyengar, 
 J. Tomasi, M. Cossi, J. M. Millam, M. Klene, C. Adamo, R. Cammi, 
 J. W. Ochterski, R. L. Martin, K. Morokuma, O. Farkas, 
 J. B. Foresman, and D. J. Fox, Gaussian, Inc., Wallingford CT, 2019.
 
 ******************************************
 Gaussian 16:  ES64L-G16RevC.01  3-Jul-2019
                 8-Oct-2024 
 ******************************************
 %nprocshared=8
 Will use up to    8 processors via shared memory.
 %mem=10400MB
 ----------------------------------------------------------------------
 #N opt freq B3LYP/def2SVPP symm=veryloose em=gd3bj scale=0.961 press=0
 .987
 ----------------------------------------------------------------------
 1/18=20,19=15,26=3,38=1,113=-987000,114=961000/1,3;
 2/9=110,12=2,17=2,18=2,40=1/2;
 3/5=43,7=202,11=2,25=1,30=1,71=1,74=-5,124=41/1,2,3;
 4//1;
 5/5=2,38=5/2;
 6/7=2,8=2,9=2,10=2,28=1/1;
 7//1,2,3,16;
 1/18=20,19=15,26=3/3(2);
 2/9=110/2;
 99//99;
 2/9=110/2;
 3/5=43,7=202,11=2,25=1,30=1,71=1,74=-5,124=41/1,2,3;
 4/5=5,16=3,69=1/1;
 5/5=2,38=5/2;
 7//1,2,3,16;
 1/18=20,19=15,26=3/3(-5);
 2/9=110/2;
 6/7=2,8=2,9=2,10=2,19=2,28=1/1;
 99/9=1/99;
 --------------------------------------------
 c1ccc2c(c1)ccc1cc3c(ccc4c5ccccc5ccc34)cc12_2
 --------------------------------------------
 Symbolic Z-matrix:
 Charge =  0 Multiplicity = 1
 C                    -6.8051   -0.3886   -0.6044 
 C                    -6.0187   -1.505    -0.8425 
 C                    -4.6278   -1.4151   -0.7301 
 C                    -3.9724   -0.208    -0.3761 
 C                    -4.8024    0.9173   -0.1386 
 C                    -6.1994    0.8149   -0.2546 
 C                    -4.2301    2.141     0.2143 
 C                    -2.8498    2.2723    0.3368 
 C                    -1.9999    1.1849    0.1102 
 C                    -0.6054    1.348     0.2418 
 C                     0.3307    0.3035    0.0319 
 C                    -0.218    -0.9419   -0.3251 
 C                     0.6274   -2.0245   -0.5506 
 C                     2.0096   -1.892    -0.4278 
 C                     2.6251   -0.6745   -0.0737 
 C                     4.06     -0.5416    0.0527 
 C                     4.9922   -1.593    -0.1593 
 C                     6.3731   -1.4143   -0.0245 
 C                     6.877    -0.1733    0.3285 
 C                     5.9986    0.8834    0.5452 
 C                     4.6093    0.7117    0.4117 
 C                     3.7646    1.7933    0.6371 
 C                     2.3825    1.6578    0.5134 
 C                     1.7668    0.4391    0.159 
 C                    -1.6116   -1.1096   -0.4578 
 C                    -2.5424   -0.0659   -0.2477 
 H                    -7.8863   -0.4513   -0.69 
 H                    -6.4809   -2.4498   -1.1163 
 H                    -4.0601   -2.3198   -0.9275 
 H                    -6.8318    1.6813   -0.0713 
 H                    -4.8553    3.012     0.3993 
 H                    -2.4441    3.2433    0.6137 
 H                    -0.2489    2.3363    0.52 
 H                     0.2232   -2.9962   -0.8276 
 H                     2.598    -2.7842   -0.6206 
 H                     4.6574   -2.5878   -0.4378 
 H                     7.0477   -2.2488   -0.1969 
 H                     7.9479   -0.0254    0.4353 
 H                     6.4095    1.8524    0.8219 
 H                     4.169     2.7648    0.914 
 H                     1.7942    2.5499    0.7062 
 H                    -1.973    -2.0965   -0.736 
 

 GradGradGradGradGradGradGradGradGradGradGradGradGradGradGradGradGradGrad
 Berny optimization.
 Initialization pass.
                           ----------------------------
                           !    Initial Parameters    !
                           ! (Angstroms and Degrees)  !
 --------------------------                            --------------------------
 ! Name  Definition              Value          Derivative Info.                !
 --------------------------------------------------------------------------------
 ! R1    R(1,2)                  1.3862         estimate D2E/DX2                !
 ! R2    R(1,6)                  1.392          estimate D2E/DX2                !
 ! R3    R(1,27)                 1.0864         estimate D2E/DX2                !
 ! R4    R(2,3)                  1.3983         estimate D2E/DX2                !
 ! R5    R(2,28)                 1.0868         estimate D2E/DX2                !
 ! R6    R(3,4)                  1.4184         estimate D2E/DX2                !
 ! R7    R(3,29)                 1.0862         estimate D2E/DX2                !
 ! R8    R(4,5)                  1.4183         estimate D2E/DX2                !
 ! R9    R(4,26)                 1.4428         estimate D2E/DX2                !
 ! R10   R(5,6)                  1.4055         estimate D2E/DX2                !
 ! R11   R(5,7)                  1.3962         estimate D2E/DX2                !
 ! R12   R(6,30)                 1.0882         estimate D2E/DX2                !
 ! R13   R(7,8)                  1.3919         estimate D2E/DX2                !
 ! R14   R(7,31)                 1.088          estimate D2E/DX2                !
 ! R15   R(8,9)                  1.3986         estimate D2E/DX2                !
 ! R16   R(8,32)                 1.0882         estimate D2E/DX2                !
 ! R17   R(9,10)                 1.4102         estimate D2E/DX2                !
 ! R18   R(9,26)                 1.4096         estimate D2E/DX2                !
 ! R19   R(10,11)                1.4182         estimate D2E/DX2                !
 ! R20   R(10,33)                1.0868         estimate D2E/DX2                !
 ! R21   R(11,12)                1.407          estimate D2E/DX2                !
 ! R22   R(11,24)                1.4481         estimate D2E/DX2                !
 ! R23   R(12,13)                1.392          estimate D2E/DX2                !
 ! R24   R(12,25)                1.4099         estimate D2E/DX2                !
 ! R25   R(13,14)                1.394          estimate D2E/DX2                !
 ! R26   R(13,34)                1.0883         estimate D2E/DX2                !
 ! R27   R(14,15)                1.4094         estimate D2E/DX2                !
 ! R28   R(14,35)                1.086          estimate D2E/DX2                !
 ! R29   R(15,16)                1.4466         estimate D2E/DX2                !
 ! R30   R(15,24)                1.4251         estimate D2E/DX2                !
 ! R31   R(16,17)                1.421          estimate D2E/DX2                !
 ! R32   R(16,21)                1.4147         estimate D2E/DX2                !
 ! R33   R(17,18)                1.3989         estimate D2E/DX2                !
 ! R34   R(17,36)                1.0859         estimate D2E/DX2                !
 ! R35   R(18,19)                1.3851         estimate D2E/DX2                !
 ! R36   R(18,37)                1.0868         estimate D2E/DX2                !
 ! R37   R(19,20)                1.3911         estimate D2E/DX2                !
 ! R38   R(19,38)                1.0863         estimate D2E/DX2                !
 ! R39   R(20,21)                1.4062         estimate D2E/DX2                !
 ! R40   R(20,39)                1.0883         estimate D2E/DX2                !
 ! R41   R(21,22)                1.3907         estimate D2E/DX2                !
 ! R42   R(22,23)                1.3942         estimate D2E/DX2                !
 ! R43   R(22,40)                1.0881         estimate D2E/DX2                !
 ! R44   R(23,24)                1.4106         estimate D2E/DX2                !
 ! R45   R(23,41)                1.0859         estimate D2E/DX2                !
 ! R46   R(25,26)                1.4142         estimate D2E/DX2                !
 ! R47   R(25,42)                1.0872         estimate D2E/DX2                !
 ! A1    A(2,1,6)              119.5137         estimate D2E/DX2                !
 ! A2    A(2,1,27)             120.3042         estimate D2E/DX2                !
 ! A3    A(6,1,27)             120.1821         estimate D2E/DX2                !
 ! A4    A(1,2,3)              119.9153         estimate D2E/DX2                !
 ! A5    A(1,2,28)             120.1412         estimate D2E/DX2                !
 ! A6    A(3,2,28)             119.9435         estimate D2E/DX2                !
 ! A7    A(2,3,4)              122.3017         estimate D2E/DX2                !
 ! A8    A(2,3,29)             116.855          estimate D2E/DX2                !
 ! A9    A(4,3,29)             120.8433         estimate D2E/DX2                !
 ! A10   A(3,4,5)              116.5252         estimate D2E/DX2                !
 ! A11   A(3,4,26)             124.3327         estimate D2E/DX2                !
 ! A12   A(5,4,26)             119.1421         estimate D2E/DX2                !
 ! A13   A(4,5,6)              120.6654         estimate D2E/DX2                !
 ! A14   A(4,5,7)              119.8557         estimate D2E/DX2                !
 ! A15   A(6,5,7)              119.4789         estimate D2E/DX2                !
 ! A16   A(1,6,5)              121.0787         estimate D2E/DX2                !
 ! A17   A(1,6,30)             118.5431         estimate D2E/DX2                !
 ! A18   A(5,6,30)             120.3781         estimate D2E/DX2                !
 ! A19   A(5,7,8)              120.7555         estimate D2E/DX2                !
 ! A20   A(5,7,31)             120.6015         estimate D2E/DX2                !
 ! A21   A(8,7,31)             118.643          estimate D2E/DX2                !
 ! A22   A(7,8,9)              120.9973         estimate D2E/DX2                !
 ! A23   A(7,8,32)             118.4428         estimate D2E/DX2                !
 ! A24   A(9,8,32)             120.56           estimate D2E/DX2                !
 ! A25   A(8,9,10)             119.7279         estimate D2E/DX2                !
 ! A26   A(8,9,26)             119.8131         estimate D2E/DX2                !
 ! A27   A(10,9,26)            120.459          estimate D2E/DX2                !
 ! A28   A(9,10,11)            123.6234         estimate D2E/DX2                !
 ! A29   A(9,10,33)            116.9642         estimate D2E/DX2                !
 ! A30   A(11,10,33)           119.4124         estimate D2E/DX2                !
 ! A31   A(10,11,12)           115.5983         estimate D2E/DX2                !
 ! A32   A(10,11,24)           124.9346         estimate D2E/DX2                !
 ! A33   A(12,11,24)           119.4671         estimate D2E/DX2                !
 ! A34   A(11,12,13)           119.5174         estimate D2E/DX2                !
 ! A35   A(11,12,25)           120.9737         estimate D2E/DX2                !
 ! A36   A(13,12,25)           119.5089         estimate D2E/DX2                !
 ! A37   A(12,13,14)           120.932          estimate D2E/DX2                !
 ! A38   A(12,13,34)           120.6707         estimate D2E/DX2                !
 ! A39   A(14,13,34)           118.3973         estimate D2E/DX2                !
 ! A40   A(13,14,15)           122.497          estimate D2E/DX2                !
 ! A41   A(13,14,35)           116.3276         estimate D2E/DX2                !
 ! A42   A(15,14,35)           121.1754         estimate D2E/DX2                !
 ! A43   A(14,15,16)           122.309          estimate D2E/DX2                !
 ! A44   A(14,15,24)           116.9371         estimate D2E/DX2                !
 ! A45   A(16,15,24)           120.7539         estimate D2E/DX2                !
 ! A46   A(15,16,17)           124.7286         estimate D2E/DX2                !
 ! A47   A(15,16,21)           119.2559         estimate D2E/DX2                !
 ! A48   A(17,16,21)           116.0155         estimate D2E/DX2                !
 ! A49   A(16,17,18)           122.592          estimate D2E/DX2                !
 ! A50   A(16,17,36)           120.9167         estimate D2E/DX2                !
 ! A51   A(18,17,36)           116.4913         estimate D2E/DX2                !
 ! A52   A(17,18,19)           119.875          estimate D2E/DX2                !
 ! A53   A(17,18,37)           119.9563         estimate D2E/DX2                !
 ! A54   A(19,18,37)           120.1688         estimate D2E/DX2                !
 ! A55   A(18,19,20)           119.3771         estimate D2E/DX2                !
 ! A56   A(18,19,38)           120.3751         estimate D2E/DX2                !
 ! A57   A(20,19,38)           120.2478         estimate D2E/DX2                !
 ! A58   A(19,20,21)           121.0848         estimate D2E/DX2                !
 ! A59   A(19,20,39)           118.5255         estimate D2E/DX2                !
 ! A60   A(21,20,39)           120.3897         estimate D2E/DX2                !
 ! A61   A(16,21,20)           121.0556         estimate D2E/DX2                !
 ! A62   A(16,21,22)           119.6224         estimate D2E/DX2                !
 ! A63   A(20,21,22)           119.322          estimate D2E/DX2                !
 ! A64   A(21,22,23)           120.8056         estimate D2E/DX2                !
 ! A65   A(21,22,40)           120.6551         estimate D2E/DX2                !
 ! A66   A(23,22,40)           118.5394         estimate D2E/DX2                !
 ! A67   A(22,23,24)           122.6105         estimate D2E/DX2                !
 ! A68   A(22,23,41)           116.1977         estimate D2E/DX2                !
 ! A69   A(24,23,41)           121.1919         estimate D2E/DX2                !
 ! A70   A(11,24,15)           120.6495         estimate D2E/DX2                !
 ! A71   A(11,24,23)           122.3988         estimate D2E/DX2                !
 ! A72   A(15,24,23)           116.9518         estimate D2E/DX2                !
 ! A73   A(12,25,26)           123.286          estimate D2E/DX2                !
 ! A74   A(12,25,42)           117.4276         estimate D2E/DX2                !
 ! A75   A(26,25,42)           119.2865         estimate D2E/DX2                !
 ! A76   A(4,26,9)             119.4363         estimate D2E/DX2                !
 ! A77   A(4,26,25)            124.504          estimate D2E/DX2                !
 ! A78   A(9,26,25)            116.0596         estimate D2E/DX2                !
 ! D1    D(6,1,2,3)              0.0024         estimate D2E/DX2                !
 ! D2    D(6,1,2,28)          -179.9974         estimate D2E/DX2                !
 ! D3    D(27,1,2,3)           179.9951         estimate D2E/DX2                !
 ! D4    D(27,1,2,28)           -0.0048         estimate D2E/DX2                !
 ! D5    D(2,1,6,5)             -0.0015         estimate D2E/DX2                !
 ! D6    D(2,1,6,30)           179.9962         estimate D2E/DX2                !
 ! D7    D(27,1,6,5)          -179.9941         estimate D2E/DX2                !
 ! D8    D(27,1,6,30)            0.0036         estimate D2E/DX2                !
 ! D9    D(1,2,3,4)              0.0014         estimate D2E/DX2                !
 ! D10   D(1,2,3,29)           179.9994         estimate D2E/DX2                !
 ! D11   D(28,2,3,4)          -179.9988         estimate D2E/DX2                !
 ! D12   D(28,2,3,29)           -0.0007         estimate D2E/DX2                !
 ! D13   D(2,3,4,5)             -0.0059         estimate D2E/DX2                !
 ! D14   D(2,3,4,26)           179.9999         estimate D2E/DX2                !
 ! D15   D(29,3,4,5)           179.9961         estimate D2E/DX2                !
 ! D16   D(29,3,4,26)            0.002          estimate D2E/DX2                !
 ! D17   D(3,4,5,6)              0.0068         estimate D2E/DX2                !
 ! D18   D(3,4,5,7)           -179.9975         estimate D2E/DX2                !
 ! D19   D(26,4,5,6)          -179.9987         estimate D2E/DX2                !
 ! D20   D(26,4,5,7)            -0.003          estimate D2E/DX2                !
 ! D21   D(3,4,26,9)           179.9929         estimate D2E/DX2                !
 ! D22   D(3,4,26,25)            0.0009         estimate D2E/DX2                !
 ! D23   D(5,4,26,9)            -0.0011         estimate D2E/DX2                !
 ! D24   D(5,4,26,25)         -179.9931         estimate D2E/DX2                !
 ! D25   D(4,5,6,1)             -0.0033         estimate D2E/DX2                !
 ! D26   D(4,5,6,30)           179.999          estimate D2E/DX2                !
 ! D27   D(7,5,6,1)           -179.999          estimate D2E/DX2                !
 ! D28   D(7,5,6,30)             0.0033         estimate D2E/DX2                !
 ! D29   D(4,5,7,8)             -0.0005         estimate D2E/DX2                !
 ! D30   D(4,5,7,31)          -179.9961         estimate D2E/DX2                !
 ! D31   D(6,5,7,8)            179.9953         estimate D2E/DX2                !
 ! D32   D(6,5,7,31)            -0.0004         estimate D2E/DX2                !
 ! D33   D(5,7,8,9)              0.0083         estimate D2E/DX2                !
 ! D34   D(5,7,8,32)           179.999          estimate D2E/DX2                !
 ! D35   D(31,7,8,9)          -179.996          estimate D2E/DX2                !
 ! D36   D(31,7,8,32)           -0.0053         estimate D2E/DX2                !
 ! D37   D(7,8,9,10)           179.9985         estimate D2E/DX2                !
 ! D38   D(7,8,9,26)            -0.0125         estimate D2E/DX2                !
 ! D39   D(32,8,9,10)            0.0081         estimate D2E/DX2                !
 ! D40   D(32,8,9,26)          179.9971         estimate D2E/DX2                !
 ! D41   D(8,9,10,11)          179.9962         estimate D2E/DX2                !
 ! D42   D(8,9,10,33)           -0.0088         estimate D2E/DX2                !
 ! D43   D(26,9,10,11)           0.0073         estimate D2E/DX2                !
 ! D44   D(26,9,10,33)        -179.9977         estimate D2E/DX2                !
 ! D45   D(8,9,26,4)             0.0087         estimate D2E/DX2                !
 ! D46   D(8,9,26,25)         -179.9986         estimate D2E/DX2                !
 ! D47   D(10,9,26,4)          179.9977         estimate D2E/DX2                !
 ! D48   D(10,9,26,25)          -0.0096         estimate D2E/DX2                !
 ! D49   D(9,10,11,12)          -0.0027         estimate D2E/DX2                !
 ! D50   D(9,10,11,24)         179.9971         estimate D2E/DX2                !
 ! D51   D(33,10,11,12)       -179.9976         estimate D2E/DX2                !
 ! D52   D(33,10,11,24)          0.0022         estimate D2E/DX2                !
 ! D53   D(10,11,12,13)       -179.9973         estimate D2E/DX2                !
 ! D54   D(10,11,12,25)          0.0012         estimate D2E/DX2                !
 ! D55   D(24,11,12,13)          0.0029         estimate D2E/DX2                !
 ! D56   D(24,11,12,25)       -179.9987         estimate D2E/DX2                !
 ! D57   D(10,11,24,15)        179.998          estimate D2E/DX2                !
 ! D58   D(10,11,24,23)          0.0004         estimate D2E/DX2                !
 ! D59   D(12,11,24,15)         -0.0021         estimate D2E/DX2                !
 ! D60   D(12,11,24,23)       -179.9998         estimate D2E/DX2                !
 ! D61   D(11,12,13,14)         -0.005          estimate D2E/DX2                !
 ! D62   D(11,12,13,34)        179.9995         estimate D2E/DX2                !
 ! D63   D(25,12,13,14)        179.9966         estimate D2E/DX2                !
 ! D64   D(25,12,13,34)          0.001          estimate D2E/DX2                !
 ! D65   D(11,12,25,26)         -0.0044         estimate D2E/DX2                !
 ! D66   D(11,12,25,42)        179.9996         estimate D2E/DX2                !
 ! D67   D(13,12,25,26)        179.994          estimate D2E/DX2                !
 ! D68   D(13,12,25,42)         -0.002          estimate D2E/DX2                !
 ! D69   D(12,13,14,15)          0.0064         estimate D2E/DX2                !
 ! D70   D(12,13,14,35)       -179.999          estimate D2E/DX2                !
 ! D71   D(34,13,14,15)       -179.998          estimate D2E/DX2                !
 ! D72   D(34,13,14,35)         -0.0033         estimate D2E/DX2                !
 ! D73   D(13,14,15,16)        179.9946         estimate D2E/DX2                !
 ! D74   D(13,14,15,24)         -0.0054         estimate D2E/DX2                !
 ! D75   D(35,14,15,16)          0.0001         estimate D2E/DX2                !
 ! D76   D(35,14,15,24)       -179.9998         estimate D2E/DX2                !
 ! D77   D(14,15,16,17)          0.0055         estimate D2E/DX2                !
 ! D78   D(14,15,16,21)        179.9953         estimate D2E/DX2                !
 ! D79   D(24,15,16,17)       -179.9946         estimate D2E/DX2                !
 ! D80   D(24,15,16,21)         -0.0047         estimate D2E/DX2                !
 ! D81   D(14,15,24,11)          0.0032         estimate D2E/DX2                !
 ! D82   D(14,15,24,23)       -179.999          estimate D2E/DX2                !
 ! D83   D(16,15,24,11)       -179.9967         estimate D2E/DX2                !
 ! D84   D(16,15,24,23)          0.0011         estimate D2E/DX2                !
 ! D85   D(15,16,17,18)       -179.9989         estimate D2E/DX2                !
 ! D86   D(15,16,17,36)         -0.0084         estimate D2E/DX2                !
 ! D87   D(21,16,17,18)          0.011          estimate D2E/DX2                !
 ! D88   D(21,16,17,36)       -179.9986         estimate D2E/DX2                !
 ! D89   D(15,16,21,20)        179.9999         estimate D2E/DX2                !
 ! D90   D(15,16,21,22)          0.0091         estimate D2E/DX2                !
 ! D91   D(17,16,21,20)         -0.0094         estimate D2E/DX2                !
 ! D92   D(17,16,21,22)        179.9998         estimate D2E/DX2                !
 ! D93   D(16,17,18,19)         -0.0074         estimate D2E/DX2                !
 ! D94   D(16,17,18,37)        179.9968         estimate D2E/DX2                !
 ! D95   D(36,17,18,19)       -179.9982         estimate D2E/DX2                !
 ! D96   D(36,17,18,37)          0.006          estimate D2E/DX2                !
 ! D97   D(17,18,19,20)          0.0017         estimate D2E/DX2                !
 ! D98   D(17,18,19,38)       -179.9914         estimate D2E/DX2                !
 ! D99   D(37,18,19,20)        179.9975         estimate D2E/DX2                !
 ! D100  D(37,18,19,38)          0.0044         estimate D2E/DX2                !
 ! D101  D(18,19,20,21)         -0.0003         estimate D2E/DX2                !
 ! D102  D(18,19,20,39)       -179.9972         estimate D2E/DX2                !
 ! D103  D(38,19,20,21)        179.9928         estimate D2E/DX2                !
 ! D104  D(38,19,20,39)         -0.0041         estimate D2E/DX2                !
 ! D105  D(19,20,21,16)          0.0045         estimate D2E/DX2                !
 ! D106  D(19,20,21,22)        179.9953         estimate D2E/DX2                !
 ! D107  D(39,20,21,16)       -179.9987         estimate D2E/DX2                !
 ! D108  D(39,20,21,22)         -0.008          estimate D2E/DX2                !
 ! D109  D(16,21,22,23)         -0.01           estimate D2E/DX2                !
 ! D110  D(16,21,22,40)       -179.9994         estimate D2E/DX2                !
 ! D111  D(20,21,22,23)        179.9991         estimate D2E/DX2                !
 ! D112  D(20,21,22,40)          0.0097         estimate D2E/DX2                !
 ! D113  D(21,22,23,24)          0.0064         estimate D2E/DX2                !
 ! D114  D(21,22,23,41)       -179.9963         estimate D2E/DX2                !
 ! D115  D(40,22,23,24)        179.996          estimate D2E/DX2                !
 ! D116  D(40,22,23,41)         -0.0067         estimate D2E/DX2                !
 ! D117  D(22,23,24,11)        179.9959         estimate D2E/DX2                !
 ! D118  D(22,23,24,15)         -0.0018         estimate D2E/DX2                !
 ! D119  D(41,23,24,11)         -0.0012         estimate D2E/DX2                !
 ! D120  D(41,23,24,15)       -179.999          estimate D2E/DX2                !
 ! D121  D(12,25,26,4)        -179.9992         estimate D2E/DX2                !
 ! D122  D(12,25,26,9)           0.0085         estimate D2E/DX2                !
 ! D123  D(42,25,26,4)          -0.0033         estimate D2E/DX2                !
 ! D124  D(42,25,26,9)        -179.9955         estimate D2E/DX2                !
 --------------------------------------------------------------------------------
 Trust Radius=3.00D-01 FncErr=1.00D-07 GrdErr=1.00D-06 EigMax=2.50D+02 EigMin=1.00D-04
 Number of steps in this run=    252 maximum allowed number of steps=    252.
 GradGradGradGradGradGradGradGradGradGradGradGradGradGradGradGradGradGrad

                          Input orientation:                          
 ---------------------------------------------------------------------
 Center     Atomic      Atomic             Coordinates (Angstroms)
 Number     Number       Type             X           Y           Z
 ---------------------------------------------------------------------
      1          6           0       -6.805100   -0.388600   -0.604400
      2          6           0       -6.018700   -1.505000   -0.842500
      3          6           0       -4.627800   -1.415100   -0.730100
      4          6           0       -3.972400   -0.208000   -0.376100
      5          6           0       -4.802400    0.917300   -0.138600
      6          6           0       -6.199400    0.814900   -0.254600
      7          6           0       -4.230100    2.141000    0.214300
      8          6           0       -2.849800    2.272300    0.336800
      9          6           0       -1.999900    1.184900    0.110200
     10          6           0       -0.605400    1.348000    0.241800
     11          6           0        0.330700    0.303500    0.031900
     12          6           0       -0.218000   -0.941900   -0.325100
     13          6           0        0.627400   -2.024500   -0.550600
     14          6           0        2.009600   -1.892000   -0.427800
     15          6           0        2.625100   -0.674500   -0.073700
     16          6           0        4.060000   -0.541600    0.052700
     17          6           0        4.992200   -1.593000   -0.159300
     18          6           0        6.373100   -1.414300   -0.024500
     19          6           0        6.877000   -0.173300    0.328500
     20          6           0        5.998600    0.883400    0.545200
     21          6           0        4.609300    0.711700    0.411700
     22          6           0        3.764600    1.793300    0.637100
     23          6           0        2.382500    1.657800    0.513400
     24          6           0        1.766800    0.439100    0.159000
     25          6           0       -1.611600   -1.109600   -0.457800
     26          6           0       -2.542400   -0.065900   -0.247700
     27          1           0       -7.886300   -0.451300   -0.690000
     28          1           0       -6.480900   -2.449800   -1.116300
     29          1           0       -4.060100   -2.319800   -0.927500
     30          1           0       -6.831800    1.681300   -0.071300
     31          1           0       -4.855300    3.012000    0.399300
     32          1           0       -2.444100    3.243300    0.613700
     33          1           0       -0.248900    2.336300    0.520000
     34          1           0        0.223200   -2.996200   -0.827600
     35          1           0        2.598000   -2.784200   -0.620600
     36          1           0        4.657400   -2.587800   -0.437800
     37          1           0        7.047700   -2.248800   -0.196900
     38          1           0        7.947900   -0.025400    0.435300
     39          1           0        6.409500    1.852400    0.821900
     40          1           0        4.169000    2.764800    0.914000
     41          1           0        1.794200    2.549900    0.706200
     42          1           0       -1.973000   -2.096500   -0.736000
 ---------------------------------------------------------------------
                    Distance matrix (angstroms):
                    1          2          3          4          5
     1  C    0.000000
     2  C    1.386169   0.000000
     3  C    2.410423   1.398327   0.000000
     4  C    2.847618   2.467201   1.418434   0.000000
     5  C    2.435806   2.800428   2.412560   1.418311   0.000000
     6  C    1.391993   2.400045   2.769283   2.453694   1.405543
     7  C    3.701320   4.196336   3.700798   2.435730   1.396248
     8  C    4.859079   5.069583   4.230423   2.814311   2.423773
     9  C    5.106516   4.928890   3.791037   2.463212   2.826220
    10  C    6.493698   6.214429   4.975843   3.760269   4.236156
    11  C    7.197466   6.659589   5.302919   4.352559   5.172479
    12  C    6.616195   5.850889   4.453569   3.825798   4.950569
    13  C    7.610593   6.672760   5.293460   4.948564   6.189237
    14  C    8.943732   8.048313   6.661374   6.214729   7.374222
    15  C    9.449447   8.717572   7.320103   6.620882   7.596433
    16  C   10.886027  10.164139   8.766621   8.050752   8.983714
    17  C   11.866970  11.032426   9.638561   9.073548  10.111193
    18  C   13.230771  12.419101  11.023505  10.421524  11.416706
    19  C   13.715557  13.017056  11.619945  10.872311  11.739505
    20  C   12.917984  12.330680  10.946683  10.072775  10.822677
    21  C   11.512239  10.928914   9.547303   8.666721   9.430016
    22  C   10.863727  10.429811   9.088204   8.055616   8.646535
    23  C    9.478883   9.078652   7.754567   6.682602   7.252326
    24  C    8.645539   8.086813   6.717102   5.800301   6.593302
    25  C    5.245357   4.441494   3.043836   2.528425   3.793602
    26  C    4.289753   3.809128   2.530206   1.442768   2.467019
    27  H    1.086394   2.149760   3.398285   3.933998   3.418705
    28  H    2.148416   1.086850   2.157252   3.444726   3.887238
    29  H    3.371788   2.123026   1.086155   2.184361   3.413530
    30  H    2.137614   3.377631   3.857373   3.440716   2.169491
    31  H    4.046383   4.826889   4.574551   3.427704   2.163308
    32  H    5.804549   6.119202   5.317427   3.902163   3.396735
    33  H    7.188401   7.064176   5.900044   4.597925   4.814735
    34  H    7.499760   6.417571   5.103096   5.057763   6.406782
    35  H    9.703476   8.713961   7.355176   7.061639   8.288507
    36  H   11.672752  10.738498   9.363525   8.952134  10.092723
    37  H   13.983078  13.103467  11.717366  11.208906  12.265906
    38  H   14.794049  14.102762  12.705812  11.949279  12.797976
    39  H   13.478949  12.980852  11.614958  10.651962  11.291752
    40  H   11.518695  11.185067   9.877161   8.762665   9.219937
    41  H    9.181526   8.937678   7.682855   6.483137   6.847934
    42  H    5.126737   4.090098   2.740858   2.773727   4.176767
                    6          7          8          9         10
     6  C    0.000000
     7  C    2.420031   0.000000
     8  C    3.700485   1.391932   0.000000
     9  C    4.231522   2.428735   1.398612   0.000000
    10  C    5.641227   3.710533   2.429133   1.410160   0.000000
    11  C    6.556357   4.920424   3.752961   2.492929   1.418211
    12  C    6.234458   5.088435   4.206610   2.808546   2.390627
    13  C    7.399663   6.444515   5.598293   4.199954   3.677152
    14  C    8.645518   7.457294   6.445136   5.082602   4.217130
    15  C    8.951136   7.416451   6.231105   4.988167   3.824418
    16  C   10.353251   8.714827   7.466196   6.301309   5.037093
    17  C   11.448099   9.956563   8.756919   7.528534   6.335889
    18  C   12.770671  11.185930   9.938986   8.768188   7.510039
    19  C   13.126644  11.346219  10.029540   8.982857   7.635979
    20  C   12.224384  10.311031   8.959166   8.015992   6.627271
    21  C   10.829709   8.956386   7.620975   6.632974   5.256124
    22  C   10.051552   8.013419   6.638517   5.820415   4.410380
    23  C    8.657327   6.636974   5.271220   4.426244   3.016171
    24  C    7.985777   6.233966   4.970436   3.840134   2.541710
    25  C    4.979247   4.227844   3.688059   2.395440   2.746211
    26  C    3.761583   2.816413   2.429674   1.409574   2.447589
    27  H    2.153710   4.572262   5.817100   6.161751   7.557595
    28  H    3.388220   5.283185   6.131445   5.898704   7.126656
    29  H    3.854315   4.607748   4.914332   4.195732   5.172521
    30  H    1.088199   2.657392   4.046251   4.860721   6.243170
    31  H    2.657337   1.087999   2.138479   3.402232   4.566766
    32  H    4.555584   2.136441   1.088167   2.165141   2.666700
    33  H    6.190566   3.997693   2.608129   2.135336   1.086841
    34  H    7.490167   6.878100   6.209368   4.827343   4.549975
    35  H    9.512188   8.460355   7.494220   6.117884   5.299111
    36  H   11.379017  10.088332   8.976560   7.671585   6.606772
    37  H   13.596884  12.109013  10.894296   9.682132   8.467548
    38  H   14.189016  12.371169  11.039903  10.026427   8.665022
    39  H   12.697229  10.660842   9.281502   8.465818   7.056894
    40  H   10.614681   8.451248   7.059693   6.418528   5.025343
    41  H    8.235958   6.058164   4.666932   4.075983   2.723658
    42  H    5.154654   4.894280   4.583240   3.388859   3.832884
                   11         12         13         14         15
    11  C    0.000000
    12  C    1.406962   0.000000
    13  C    2.418041   1.391968   0.000000
    14  C    2.801830   2.423930   1.393956   0.000000
    15  C    2.496379   2.866692   2.457791   1.409444   0.000000
    16  C    3.823912   4.313265   3.787573   2.501720   1.446574
    17  C    5.036154   5.253342   4.403497   3.009551   2.540498
    18  C    6.282087   6.614841   5.801913   4.408059   3.820632
    19  C    6.570339   7.166377   6.577025   5.217040   4.300188
    20  C    5.720564   6.537221   6.205357   4.955976   3.767040
    21  C    4.314776   5.155588   4.926291   3.773918   2.468646
    22  C    3.791760   4.926282   5.082150   4.218468   2.809579
    23  C    2.505165   3.771488   4.215662   3.691340   2.417264
    24  C    1.448076   2.465957   2.805546   2.416053   1.425108
    25  C    2.451364   1.409913   2.420491   3.704880   4.276268
    26  C    2.910212   2.485197   3.738381   4.907930   5.206124
    27  H    8.283112   7.692637   8.658954  10.003659  10.531817
    28  H    7.436190   6.490276   7.143446   8.536613   9.335842
    29  H    5.203967   4.125921   4.711890   6.105241   6.937426
    30  H    7.294545   7.119547   8.342802   9.542846   9.745910
    31  H    5.862214   6.136989   7.505241   8.477037   8.352867
    32  H    4.084168   4.832470   6.208013   6.876880   6.443482
    33  H    2.169436   3.385520   4.575004   4.886478   4.204435
    34  H    3.411498   2.160396   1.088259   2.137831   3.424585
    35  H    3.885910   3.378054   2.113128   1.086005   2.179603
    36  H    5.224994   5.146962   4.070741   2.737715   2.814876
    37  H    7.189205   7.383415   6.433946   5.055994   4.696061
    38  H    7.634962   8.252279   7.652328   6.284309   5.386336
    39  H    6.322579   7.283370   7.095547   5.911125   4.637780
    40  H    4.644206   5.875437   6.133953   5.305584   3.897174
    41  H    2.764566   4.159951   4.885295   4.589426   3.419853
    42  H    3.414192   2.140552   2.607995   3.999739   4.858317
                   16         17         18         19         20
    16  C    0.000000
    17  C    1.421050   0.000000
    18  C    2.473458   1.398924   0.000000
    19  C    2.854330   2.409558   1.385137   0.000000
    20  C    2.455881   2.764366   2.396713   1.391100   0.000000
    21  C    1.414699   2.405056   2.796630   2.435695   1.406221
    22  C    2.424983   3.688941   4.186966   3.694561   2.413943
    23  C    2.804213   4.222648   5.064783   4.856711   3.698227
    24  C    2.496365   3.825435   4.968578   5.149554   4.272550
    25  C    5.722786   6.628194   8.002251   8.576203   7.930523
    26  C    6.626328   7.688306   9.019653   9.437618   8.630095
    27  H   11.969705  12.939895  14.307367  14.801002  14.003485
    28  H   10.775823  11.544781  12.941777  13.627303  13.023391
    29  H    8.370114   9.113863  10.511280  11.216290  10.658648
    30  H   11.117013  12.269302  13.562976  13.839457  12.869960
    31  H    9.603686  10.885372  12.076784  12.157221  11.061617
    32  H    7.546092   8.904262   9.992175   9.931636   8.766584
    33  H    5.202624   6.585589   7.629834   7.557329   6.414266
    34  H    4.639076   5.015870   6.400676   7.319726   7.091623
    35  H    2.760440   2.713660   4.059968   5.101709   5.135607
    36  H    2.187330   1.085947   2.119327   3.368034   3.848940
    37  H    3.450099   2.157908   1.086829   2.147763   3.385558
    38  H    3.940636   3.398100   2.149524   1.086328   2.153547
    39  H    3.441374   3.852567   3.374766   2.136694   1.088284
    40  H    3.418479   4.562900   4.817024   4.038379   2.650116
    41  H    3.888224   5.304707   6.100420   5.778696   4.525497
    42  H    6.279877   7.007147   8.404107   9.118901   8.606258
                   21         22         23         24         25
    21  C    0.000000
    22  C    1.390749   0.000000
    23  C    2.421588   1.394225   0.000000
    24  C    2.866701   2.460415   1.410644   0.000000
    25  C    6.540089   6.207186   4.955257   3.767294   0.000000
    26  C    7.224007   6.634587   5.273050   4.357710   1.414157
    27  H   12.597870  11.939133  10.552001   9.731185   6.313409
    28  H   11.632816  11.227136   9.903947   8.831573   5.093117
    29  H    9.281269   8.977277   7.707437   6.537949   2.771345
    30  H   11.492266  10.620643   9.232863   8.690916   5.932031
    31  H    9.740133   8.708872   7.364280   7.108429   5.314489
    32  H    7.496683   6.375814   5.081332   5.079564   4.559485
    33  H    5.123784   4.051758   2.717475   2.791547   3.832398
    34  H    5.875565   6.134017   5.302884   3.893246   2.657537
    35  H    4.163206   4.888381   4.589527   3.418820   4.533379
    36  H    3.407442   4.598537   4.909692   4.227749   6.440950
    37  H    3.883394   5.273791   6.126185   5.936276   8.737810
    38  H    3.419082   4.566004   5.814889   6.204684   9.662151
    39  H    2.170295   2.652007   4.043485   4.898114   8.645757
    40  H    2.159025   1.088129   2.139512   3.427750   7.092824
    41  H    3.374981   2.111799   1.085869   2.180746   5.132866
    42  H    7.247750   7.066541   5.884399   4.606126   1.087188
                   26         27         28         29         30
    26  C    0.000000
    27  H    5.376005   0.000000
    28  H    4.685000   2.480097   0.000000
    29  H    2.801001   4.264681   2.431629   0.000000
    30  H    4.634952   2.458199   4.275645   4.942085   0.000000
    31  H    3.904047   4.729480   5.896684   5.551651   2.428740
    32  H    3.420888   6.705762   7.190274   5.994567   4.707545
    33  H    3.408822   8.219774   8.026335   6.188681   6.641779
    34  H    4.070809   8.500555   6.732522   4.337529   8.498472
    35  H    5.826828  10.740940   9.098570   6.681329  10.448136
    36  H    7.631071  12.726847  11.159800   8.735356  12.262188
    37  H    9.835530  15.049867  13.561295  11.132028  14.425740
    38  H   10.512589  15.879848  14.713105  12.300958  14.886538
    39  H    9.217398  14.558941  13.726906  11.405270  13.272494
    40  H    7.375995  12.579601  12.030567   9.846947  11.097855
    41  H    5.153488  10.230770   9.838485   7.788182   8.704415
    42  H    2.164715   6.138071   4.537688   2.107729   6.190439
                   31         32         33         34         35
    31  H    0.000000
    32  H    2.431739   0.000000
    33  H    4.657259   2.377043   0.000000
    34  H    7.962092   6.937088   5.520368   0.000000
    35  H    9.496726   7.954686   5.968696   2.393213   0.000000
    36  H   11.070228   9.248712   7.016831   4.469996   2.076805
    37  H   13.027390  10.996113   8.647396   6.894214   4.501778
    38  H   13.158610  10.895407   8.530670   8.372070   6.111246
    39  H   11.332210   8.964607   6.682783   8.031194   6.173038
    40  H    9.042346   6.637186   4.456084   7.196640   5.967783
    41  H    6.672599   4.295643   2.062657   5.964881   5.555098
    42  H    5.974390   5.527847   4.919326   2.375109   4.623883
                   36         37         38         39         40
    36  H    0.000000
    37  H    2.426209   0.000000
    38  H    4.260937   2.480634   0.000000
    39  H    4.936808   4.273768   2.458102   0.000000
    40  H    5.542222   5.887036   4.721700   2.420908   0.000000
    41  H    5.991879   7.172334   6.676345   4.669142   2.393541
    42  H    6.655261   9.038078  10.202238   9.396125   8.004930
                   41         42
    41  H    0.000000
    42  H    6.153111   0.000000
 Stoichiometry    C26H16
 Framework group  CS[SG(C26H16)]
 Deg. of freedom    81
 Full point group                 CS      NOp   2
 Largest Abelian subgroup         CS      NOp   2
 Largest concise Abelian subgroup C1      NOp   1
                         Standard orientation:                         
 ---------------------------------------------------------------------
 Center     Atomic      Atomic             Coordinates (Angstroms)
 Number     Number       Type             X           Y           Z
 ---------------------------------------------------------------------
      1          6           0       -4.041009    5.514401    0.000000
      2          6           0       -4.594625    4.243584    0.000000
      3          6           0       -3.761987    3.120182    0.000000
      4          6           0       -2.347440    3.225132    0.000000
      5          6           0       -1.809667    4.537537    0.000000
      6          6           0       -2.656576    5.659275    0.000000
      7          6           0       -0.425600    4.721565    0.000000
      8          6           0        0.437647    3.629650    0.000000
      9          6           0       -0.056123    2.321098    0.000000
     10          6           0        0.842721    1.234529    0.000000
     11          6           0        0.433335   -0.123309   -0.000000
     12          6           0       -0.956988   -0.339047   -0.000000
     13          6           0       -1.448948   -1.641180   -0.000000
     14          6           0       -0.583650   -2.734054   -0.000000
     15          6           0        0.818394   -2.589812   -0.000000
     16          6           0        1.712630   -3.726878   -0.000000
     17          6           0        1.295059   -5.085192   -0.000000
     18          6           0        2.200233   -6.151798   -0.000000
     19          6           0        3.562419   -5.900694   -0.000000
     20          6           0        4.013767   -4.584851   -0.000000
     21          6           0        3.110192   -3.507349   -0.000000
     22          6           0        3.601680   -2.206342   -0.000000
     23          6           0        2.733772   -1.115197   -0.000000
     24          6           0        1.330572   -1.259922   -0.000000
     25          6           0       -1.859373    0.744260    0.000000
     26          6           0       -1.447801    2.097201    0.000000
     27          1           0       -4.681968    6.391569    0.000000
     28          1           0       -5.674268    4.118637    0.000000
     29          1           0       -4.248323    2.148992    0.000000
     30          1           0       -2.238926    6.664136    0.000000
     31          1           0       -0.000000    5.722867    0.000000
     32          1           0        1.509654    3.816484    0.000000
     33          1           0        1.903245    1.472253    0.000000
     34          1           0       -2.520760   -1.829661   -0.000000
     35          1           0       -1.047789   -3.715880   -0.000000
     36          1           0        0.240586   -5.344747   -0.000000
     37          1           0        1.833436   -7.174861   -0.000000
     38          1           0        4.272530   -6.722795   -0.000000
     39          1           0        5.086833   -4.403490   -0.000000
     40          1           0        4.673411   -2.018143   -0.000000
     41          1           0        3.197882   -0.133508   -0.000000
     42          1           0       -2.921336    0.511425    0.000000
 ---------------------------------------------------------------------
 Rotational constants (GHZ):           0.8113442           0.0881891           0.0795432
 Standard basis: def2SVPP (5D, 7F)
 There are   318 symmetry adapted cartesian basis functions of A'  symmetry.
 There are   104 symmetry adapted cartesian basis functions of A"  symmetry.
 There are   292 symmetry adapted basis functions of A'  symmetry.
 There are   104 symmetry adapted basis functions of A"  symmetry.
   396 basis functions,   714 primitive gaussians,   422 cartesian basis functions
    86 alpha electrons       86 beta electrons
       nuclear repulsion energy      1953.0036528462 Hartrees.
 NAtoms=   42 NActive=   42 NUniq=   42 SFac= 1.00D+00 NAtFMM=   60 NAOKFM=F Big=F
 Integral buffers will be    131072 words long.
 Raffenetti 2 integral format.
 Two-electron integral symmetry is turned on.
 Nuclear repulsion after empirical dispersion term =     1952.8934998185 Hartrees.
 One-electron integrals computed using PRISM.
   2 Symmetry operations used in ECPInt.
 ECPInt:  NShTT=   17766 NPrTT=   71262 LenC2=   14989 LenP2D=   39813.
 LDataN:  DoStor=T MaxTD1= 4 Len=   56
 NBasis=   396 RedAO= T EigKep=  1.95D-04  NBF=   292   104
 NBsUse=   396 1.00D-06 EigRej= -1.00D+00 NBFU=   292   104
 ExpMin= 1.22D-01 ExpMax= 1.24D+03 ExpMxC= 1.86D+02 IAcc=3 IRadAn=         5 AccDes= 0.00D+00
 Harris functional with IExCor=  402 and IRadAn=       5 diagonalized for initial guess.
 HarFok:  IExCor=  402 AccDes= 0.00D+00 IRadAn=         5 IDoV= 1 UseB2=F ITyADJ=14
 ICtDFT=  3500011 ScaDFX=  1.000000  1.000000  1.000000  1.000000
 FoFCou: FMM=F IPFlag=           0 FMFlag=      100000 FMFlg1=           0
         NFxFlg=           0 DoJE=T BraDBF=F KetDBF=T FulRan=T
         wScrn=  0.000000 ICntrl=       500 IOpCl=  0 I1Cent=   200000004 NGrid=           0
         NMat0=    1 NMatS0=      1 NMatT0=    0 NMatD0=    1 NMtDS0=    0 NMtDT0=    0
 Petite list used in FoFCou.
 Initial guess orbital symmetries:
       Occupied  (A') (A') (A') (A') (A') (A') (A') (A') (A') (A')
                 (A') (A') (A') (A') (A') (A') (A') (A') (A') (A')
                 (A') (A') (A') (A') (A') (A') (A') (A') (A') (A')
                 (A') (A') (A') (A') (A') (A') (A') (A') (A') (A')
                 (A') (A') (A') (A') (A') (A') (A') (A') (A') (A')
                 (A') (A') (A') (A') (A') (A') (A') (A') (A') (A')
                 (A') (A') (A') (A') (A') (A') (A") (A') (A") (A')
                 (A') (A") (A') (A') (A') (A") (A') (A") (A") (A")
                 (A") (A") (A") (A") (A") (A")
       Virtual   (A") (A") (A") (A") (A") (A") (A") (A") (A") (A")
                 (A') (A') (A') (A') (A") (A') (A') (A') (A') (A')
                 (A") (A') (A') (A') (A') (A") (A') (A') (A') (A')
                 (A') (A') (A') (A') (A') (A') (A') (A') (A') (A')
                 (A') (A') (A') (A') (A') (A') (A') (A') (A') (A')
                 (A') (A') (A') (A') (A') (A') (A') (A') (A') (A')
                 (A') (A') (A') (A') (A') (A") (A') (A') (A") (A')
                 (A') (A') (A") (A') (A') (A") (A') (A") (A') (A')
                 (A") (A') (A") (A') (A') (A") (A') (A") (A') (A')
                 (A") (A") (A') (A") (A") (A") (A") (A') (A') (A")
                 (A") (A') (A') (A') (A') (A') (A") (A') (A') (A')
                 (A') (A') (A') (A") (A') (A') (A") (A') (A') (A')
                 (A") (A') (A") (A') (A') (A') (A') (A') (A") (A')
                 (A') (A') (A') (A") (A') (A') (A') (A') (A") (A')
                 (A") (A') (A') (A') (A') (A') (A') (A') (A') (A')
                 (A') (A') (A') (A') (A') (A') (A') (A') (A") (A')
                 (A") (A") (A") (A') (A') (A") (A") (A') (A') (A')
                 (A') (A") (A') (A') (A") (A') (A') (A") (A") (A')
                 (A") (A') (A") (A') (A") (A') (A") (A") (A') (A")
                 (A") (A") (A") (A") (A") (A') (A') (A') (A') (A')
                 (A') (A') (A') (A') (A') (A') (A') (A") (A') (A')
                 (A") (A') (A") (A') (A') (A') (A') (A') (A") (A')
                 (A') (A') (A") (A') (A') (A') (A') (A') (A") (A')
                 (A') (A") (A') (A') (A") (A') (A') (A') (A") (A')
                 (A') (A') (A") (A') (A') (A') (A") (A') (A") (A")
                 (A') (A") (A') (A") (A') (A") (A') (A") (A") (A")
                 (A') (A") (A") (A") (A") (A") (A') (A") (A') (A')
                 (A') (A') (A') (A') (A') (A') (A") (A') (A') (A")
                 (A') (A') (A") (A') (A') (A") (A') (A') (A") (A')
                 (A') (A") (A') (A') (A') (A') (A') (A') (A') (A')
                 (A') (A') (A') (A') (A') (A') (A') (A') (A') (A')
 The electronic state of the initial guess is 1-A'.
 Requested convergence on RMS density matrix=1.00D-08 within 128 cycles.
 Requested convergence on MAX density matrix=1.00D-06.
 Requested convergence on             energy=1.00D-06.
 No special actions if energy rises.
 Integral accuracy reduced to 1.0D-05 until final iterations.
 Initial convergence to 1.0D-05 achieved.  Increase integral accuracy.
 SCF Done:  E(RB3LYP) =  -999.817282170     A.U. after   15 cycles
            NFock= 15  Conv=0.76D-08     -V/T= 2.0105

 **********************************************************************

            Population analysis using the SCF Density.

 **********************************************************************

 Orbital symmetries:
       Occupied  (A') (A') (A') (A') (A') (A') (A') (A') (A') (A')
                 (A') (A') (A') (A') (A') (A') (A') (A') (A') (A')
                 (A') (A') (A') (A') (A') (A') (A') (A') (A') (A')
                 (A') (A') (A') (A') (A') (A') (A') (A') (A') (A')
                 (A') (A') (A') (A') (A') (A') (A') (A') (A') (A')
                 (A') (A') (A') (A') (A') (A') (A') (A') (A') (A')
                 (A') (A') (A") (A') (A') (A") (A') (A') (A') (A")
                 (A') (A') (A') (A") (A') (A') (A") (A') (A") (A")
                 (A") (A") (A") (A") (A") (A")
       Virtual   (A") (A") (A") (A") (A") (A") (A") (A") (A') (A')
                 (A') (A') (A") (A') (A') (A') (A") (A') (A') (A')
                 (A') (A') (A") (A') (A') (A') (A") (A') (A') (A")
                 (A') (A') (A') (A') (A') (A') (A') (A') (A') (A')
                 (A') (A') (A') (A') (A') (A') (A') (A') (A') (A')
                 (A') (A') (A') (A') (A') (A') (A') (A') (A') (A')
                 (A') (A') (A') (A") (A') (A') (A") (A') (A') (A')
                 (A") (A') (A') (A") (A') (A') (A") (A') (A") (A')
                 (A') (A') (A") (A") (A") (A') (A') (A') (A") (A")
                 (A') (A') (A") (A") (A") (A') (A") (A") (A") (A')
                 (A') (A") (A') (A') (A') (A') (A') (A") (A') (A')
                 (A") (A') (A') (A") (A') (A') (A") (A') (A') (A')
                 (A') (A') (A") (A') (A') (A') (A') (A') (A") (A')
                 (A') (A') (A') (A') (A') (A') (A") (A') (A') (A")
                 (A') (A') (A') (A') (A') (A') (A') (A') (A') (A')
                 (A') (A') (A') (A') (A') (A') (A') (A') (A') (A")
                 (A') (A") (A') (A') (A") (A") (A') (A") (A") (A')
                 (A') (A') (A') (A") (A') (A') (A") (A') (A') (A")
                 (A") (A') (A") (A') (A") (A') (A") (A") (A') (A")
                 (A") (A") (A") (A") (A") (A') (A") (A') (A') (A')
                 (A') (A') (A') (A') (A') (A') (A") (A') (A') (A')
                 (A") (A') (A") (A') (A') (A') (A') (A") (A') (A')
                 (A') (A") (A') (A') (A') (A') (A') (A") (A') (A')
                 (A") (A') (A') (A") (A') (A') (A') (A') (A") (A')
                 (A') (A') (A") (A') (A') (A') (A") (A") (A') (A")
                 (A") (A') (A') (A") (A') (A") (A') (A") (A") (A")
                 (A') (A") (A") (A") (A") (A") (A') (A") (A') (A')
                 (A') (A') (A') (A') (A') (A") (A') (A") (A') (A')
                 (A") (A') (A") (A') (A') (A') (A') (A") (A') (A')
                 (A") (A') (A') (A') (A') (A') (A') (A') (A') (A')
                 (A') (A') (A') (A') (A') (A') (A') (A') (A') (A')
 The electronic state is 1-A'.
 Alpha  occ. eigenvalues --  -10.20335 -10.20305 -10.20243 -10.20202 -10.20199
 Alpha  occ. eigenvalues --  -10.20125 -10.19663 -10.19577 -10.19517 -10.19444
 Alpha  occ. eigenvalues --  -10.19290 -10.19287 -10.19284 -10.19214 -10.19072
 Alpha  occ. eigenvalues --  -10.19057 -10.19023 -10.19018 -10.18987 -10.18984
 Alpha  occ. eigenvalues --  -10.18958 -10.18954 -10.18922 -10.18909 -10.18897
 Alpha  occ. eigenvalues --  -10.18876  -0.89098  -0.87925  -0.85930  -0.83289
 Alpha  occ. eigenvalues --   -0.81239  -0.79520  -0.77802  -0.76906  -0.75318
 Alpha  occ. eigenvalues --   -0.74081  -0.72036  -0.71533  -0.69634  -0.65104
 Alpha  occ. eigenvalues --   -0.63953  -0.62978  -0.61850  -0.60490  -0.60174
 Alpha  occ. eigenvalues --   -0.58537  -0.55574  -0.53597  -0.53232  -0.52327
 Alpha  occ. eigenvalues --   -0.50463  -0.50308  -0.49005  -0.47550  -0.47351
 Alpha  occ. eigenvalues --   -0.45950  -0.44414  -0.44016  -0.43386  -0.43215
 Alpha  occ. eigenvalues --   -0.43069  -0.42289  -0.41975  -0.41100  -0.40721
 Alpha  occ. eigenvalues --   -0.40521  -0.40087  -0.39665  -0.38371  -0.38059
 Alpha  occ. eigenvalues --   -0.37406  -0.36169  -0.34961  -0.34903  -0.34014
 Alpha  occ. eigenvalues --   -0.33676  -0.32860  -0.32671  -0.31203  -0.29667
 Alpha  occ. eigenvalues --   -0.28679  -0.26630  -0.25052  -0.22781  -0.22304
 Alpha  occ. eigenvalues --   -0.19569
 Alpha virt. eigenvalues --   -0.07507  -0.05230  -0.04322  -0.02318  -0.00478
 Alpha virt. eigenvalues --    0.01466   0.02945   0.05623   0.06100   0.06273
 Alpha virt. eigenvalues --    0.06401   0.07570   0.07968   0.07980   0.09622
 Alpha virt. eigenvalues --    0.09954   0.10765   0.11322   0.12025   0.12913
 Alpha virt. eigenvalues --    0.13515   0.15206   0.15659   0.15847   0.18819
 Alpha virt. eigenvalues --    0.19217   0.20482   0.21777   0.22513   0.23365
 Alpha virt. eigenvalues --    0.23630   0.24216   0.24921   0.25409   0.26387
 Alpha virt. eigenvalues --    0.26911   0.27526   0.27578   0.28397   0.28810
 Alpha virt. eigenvalues --    0.29766   0.29841   0.30770   0.30928   0.31791
 Alpha virt. eigenvalues --    0.32675   0.33358   0.33585   0.34607   0.34794
 Alpha virt. eigenvalues --    0.35559   0.35921   0.36679   0.36982   0.38060
 Alpha virt. eigenvalues --    0.38557   0.39107   0.40103   0.41349   0.41732
 Alpha virt. eigenvalues --    0.42910   0.43055   0.43233   0.44374   0.44683
 Alpha virt. eigenvalues --    0.45351   0.45354   0.45646   0.46022   0.46799
 Alpha virt. eigenvalues --    0.46912   0.47497   0.47816   0.48032   0.48357
 Alpha virt. eigenvalues --    0.48881   0.49088   0.49360   0.49545   0.49947
 Alpha virt. eigenvalues --    0.50056   0.50413   0.51135   0.52438   0.53795
 Alpha virt. eigenvalues --    0.53930   0.54190   0.54864   0.55698   0.56532
 Alpha virt. eigenvalues --    0.56853   0.57123   0.57959   0.58761   0.59234
 Alpha virt. eigenvalues --    0.59623   0.61071   0.62708   0.62743   0.64755
 Alpha virt. eigenvalues --    0.65528   0.65709   0.66104   0.66126   0.67238
 Alpha virt. eigenvalues --    0.67545   0.67944   0.68270   0.68610   0.68777
 Alpha virt. eigenvalues --    0.69311   0.69998   0.70624   0.71062   0.71291
 Alpha virt. eigenvalues --    0.71456   0.71610   0.72286   0.72820   0.73839
 Alpha virt. eigenvalues --    0.74390   0.74432   0.75122   0.75421   0.76099
 Alpha virt. eigenvalues --    0.76340   0.76688   0.78050   0.78248   0.78991
 Alpha virt. eigenvalues --    0.79353   0.80105   0.80517   0.81494   0.82187
 Alpha virt. eigenvalues --    0.82485   0.82562   0.83710   0.84597   0.84933
 Alpha virt. eigenvalues --    0.85535   0.87312   0.88257   0.89727   0.90395
 Alpha virt. eigenvalues --    0.92140   0.95880   0.97082   0.98092   0.98974
 Alpha virt. eigenvalues --    1.02412   1.07975   1.08934   1.10332   1.11446
 Alpha virt. eigenvalues --    1.12885   1.14393   1.15609   1.18724   1.20922
 Alpha virt. eigenvalues --    1.20927   1.21628   1.22042   1.23115   1.23366
 Alpha virt. eigenvalues --    1.23659   1.24813   1.25119   1.25732   1.26937
 Alpha virt. eigenvalues --    1.27963   1.29866   1.30046   1.33194   1.33233
 Alpha virt. eigenvalues --    1.33834   1.35819   1.36090   1.37547   1.38349
 Alpha virt. eigenvalues --    1.39268   1.39708   1.40825   1.40972   1.42148
 Alpha virt. eigenvalues --    1.42433   1.44672   1.45587   1.45676   1.45940
 Alpha virt. eigenvalues --    1.47932   1.48405   1.48523   1.49057   1.49759
 Alpha virt. eigenvalues --    1.49799   1.50154   1.52239   1.53644   1.54392
 Alpha virt. eigenvalues --    1.55945   1.67956   1.69590   1.70703   1.71600
 Alpha virt. eigenvalues --    1.72203   1.73227   1.74153   1.75042   1.75564
 Alpha virt. eigenvalues --    1.75724   1.77838   1.78191   1.80567   1.82301
 Alpha virt. eigenvalues --    1.82978   1.83744   1.84173   1.84285   1.86283
 Alpha virt. eigenvalues --    1.86918   1.87816   1.88605   1.89819   1.90321
 Alpha virt. eigenvalues --    1.92501   1.93942   1.94310   1.94874   1.98039
 Alpha virt. eigenvalues --    1.99849   2.00508   2.03828   2.04129   2.05071
 Alpha virt. eigenvalues --    2.07300   2.07765   2.08435   2.08919   2.09782
 Alpha virt. eigenvalues --    2.11486   2.12783   2.13628   2.15336   2.16592
 Alpha virt. eigenvalues --    2.16776   2.16990   2.18438   2.18576   2.19823
 Alpha virt. eigenvalues --    2.20820   2.21020   2.22928   2.23696   2.26685
 Alpha virt. eigenvalues --    2.27009   2.28041   2.28156   2.29011   2.29693
 Alpha virt. eigenvalues --    2.31311   2.33874   2.33987   2.34749   2.35808
 Alpha virt. eigenvalues --    2.36651   2.38713   2.39306   2.41555   2.46609
 Alpha virt. eigenvalues --    2.48424   2.48599   2.54708   2.55734   2.57190
 Alpha virt. eigenvalues --    2.57434   2.58354   2.60408   2.60925   2.61113
 Alpha virt. eigenvalues --    2.63526   2.63855   2.64233   2.64384   2.65460
 Alpha virt. eigenvalues --    2.65789   2.68041   2.68319   2.68953   2.69791
 Alpha virt. eigenvalues --    2.70503   2.72482   2.76821   2.77999   2.79167
 Alpha virt. eigenvalues --    2.81823   2.84249   2.87961   2.91389   2.94369
 Alpha virt. eigenvalues --    2.97126   3.02318   3.03422   3.07422   3.25411
 Alpha virt. eigenvalues --    3.33258   3.38136   3.41106   3.49979   3.55130
          Condensed to atoms (all electrons):
               1          2          3          4          5          6
     1  C    5.234567   0.168930   0.143063  -0.156110   0.150763   0.193700
     2  C    0.168930   5.207812   0.243090   0.123080  -0.170564   0.150007
     3  C    0.143063   0.243090   5.441410   0.259936   0.019498  -0.173182
     4  C   -0.156110   0.123080   0.259936   5.565138   0.075936   0.045944
     5  C    0.150763  -0.170564   0.019498   0.075936   5.488897   0.228107
     6  C    0.193700   0.150007  -0.173182   0.045944   0.228107   5.460058
     7  C    0.022200  -0.002354   0.027730   0.025717   0.152287  -0.162162
     8  C   -0.001453   0.000215  -0.003905  -0.138984   0.156560   0.019361
     9  C   -0.000038   0.000353   0.022368   0.002066  -0.173837  -0.000983
    10  C   -0.000001   0.000002  -0.000307   0.026268  -0.001393   0.000055
    11  C   -0.000000   0.000004   0.000042  -0.003027  -0.000051  -0.000000
    12  C    0.000007  -0.000097   0.000242   0.023376   0.000435  -0.000003
    13  C   -0.000000  -0.000001  -0.000053  -0.000745   0.000011   0.000000
    14  C   -0.000000   0.000000   0.000001   0.000005  -0.000000   0.000000
    15  C    0.000000  -0.000000  -0.000000  -0.000003   0.000000   0.000000
    16  C   -0.000000   0.000000  -0.000000  -0.000000   0.000000  -0.000000
    17  C    0.000000  -0.000000  -0.000000  -0.000000   0.000000  -0.000000
    18  C   -0.000000   0.000000   0.000000   0.000000  -0.000000   0.000000
    19  C    0.000000   0.000000  -0.000000  -0.000000   0.000000   0.000000
    20  C   -0.000000  -0.000000   0.000000   0.000000  -0.000000  -0.000000
    21  C    0.000000  -0.000000  -0.000000   0.000000   0.000000  -0.000000
    22  C   -0.000000   0.000000   0.000000  -0.000000  -0.000000   0.000000
    23  C   -0.000000   0.000000   0.000000   0.000001  -0.000000   0.000000
    24  C    0.000000   0.000000   0.000001   0.000120  -0.000004  -0.000000
    25  C    0.000018   0.000290  -0.029590  -0.152067   0.023026  -0.000266
    26  C   -0.004233   0.022147  -0.146930   0.201495   0.007617   0.026595
    27  H    0.436399  -0.084230   0.015157  -0.001210   0.015729  -0.078933
    28  H   -0.085786   0.436077  -0.075159   0.015752  -0.001650   0.015537
    29  H    0.015660  -0.081491   0.417416  -0.047805   0.019050  -0.001918
    30  H   -0.083247   0.016215  -0.002262   0.017040  -0.079980   0.440725
    31  H    0.001024  -0.000068  -0.000303   0.015945  -0.088208  -0.020140
    32  H    0.000013  -0.000002   0.000056  -0.001668   0.016712  -0.000566
    33  H    0.000000  -0.000000   0.000012  -0.000221  -0.000064  -0.000002
    34  H    0.000000  -0.000000   0.000008  -0.000059   0.000000   0.000000
    35  H    0.000000  -0.000000  -0.000000   0.000000   0.000000  -0.000000
    36  H   -0.000000   0.000000   0.000000  -0.000000   0.000000   0.000000
    37  H    0.000000  -0.000000  -0.000000  -0.000000   0.000000  -0.000000
    38  H    0.000000   0.000000   0.000000  -0.000000  -0.000000   0.000000
    39  H   -0.000000   0.000000   0.000000  -0.000000  -0.000000   0.000000
    40  H    0.000000   0.000000   0.000000   0.000000  -0.000000  -0.000000
    41  H   -0.000000   0.000000  -0.000000  -0.000001   0.000000   0.000000
    42  H   -0.000048   0.001021   0.011538  -0.038444  -0.001148   0.000033
               7          8          9         10         11         12
     1  C    0.022200  -0.001453  -0.000038  -0.000001  -0.000000   0.000007
     2  C   -0.002354   0.000215   0.000353   0.000002   0.000004  -0.000097
     3  C    0.027730  -0.003905   0.022368  -0.000307   0.000042   0.000242
     4  C    0.025717  -0.138984   0.002066   0.026268  -0.003027   0.023376
     5  C    0.152287   0.156560  -0.173837  -0.001393  -0.000051   0.000435
     6  C   -0.162162   0.019361  -0.000983   0.000055  -0.000000  -0.000003
     7  C    5.515800   0.192945   0.155438   0.019862  -0.001291   0.000105
     8  C    0.192945   5.521238   0.152441  -0.155327   0.021347  -0.001836
     9  C    0.155438   0.152441   5.479429   0.257161   0.128303  -0.166751
    10  C    0.019862  -0.155327   0.257161   5.733102   0.249597   0.017032
    11  C   -0.001291   0.021347   0.128303   0.249597   5.563840   0.017955
    12  C    0.000105  -0.001836  -0.166751   0.017032   0.017955   5.491932
    13  C   -0.000004   0.000077  -0.001553   0.027954   0.031812   0.156506
    14  C    0.000000  -0.000004   0.000036  -0.003544  -0.140870   0.154045
    15  C   -0.000000   0.000011   0.000710   0.020904   0.008901  -0.177823
    16  C   -0.000000   0.000000   0.000002   0.000011   0.025744  -0.003881
    17  C   -0.000000   0.000000  -0.000000   0.000007   0.000001  -0.000103
    18  C    0.000000  -0.000000  -0.000000  -0.000000   0.000002   0.000007
    19  C    0.000000  -0.000000   0.000000   0.000000  -0.000002  -0.000001
    20  C   -0.000000   0.000000  -0.000000  -0.000002   0.000071   0.000003
    21  C   -0.000000   0.000000   0.000008  -0.000089  -0.003648  -0.000419
    22  C    0.000000  -0.000001  -0.000117   0.000986   0.021847   0.000332
    23  C    0.000001  -0.000054   0.000139  -0.031146  -0.145738   0.026358
    24  C    0.000004  -0.000602   0.023288  -0.153568   0.221930   0.015234
    25  C   -0.003499   0.027176   0.015037  -0.151421   0.027533   0.250117
    26  C   -0.137093   0.026625   0.036453   0.028605  -0.134553   0.132311
    27  H   -0.000541   0.000010  -0.000000   0.000000   0.000000  -0.000000
    28  H    0.000030  -0.000001   0.000008  -0.000000   0.000000  -0.000001
    29  H   -0.000245  -0.000034  -0.001563   0.000025  -0.000018   0.001720
    30  H   -0.022525   0.001143  -0.000082  -0.000001   0.000000  -0.000000
    31  H    0.443109  -0.078787   0.016789  -0.000616   0.000010  -0.000002
    32  H   -0.080270   0.440651  -0.084789  -0.022627   0.000997  -0.000008
    33  H    0.001078  -0.020660  -0.085682   0.418402  -0.052709   0.021282
    34  H   -0.000000   0.000001  -0.000008  -0.000437   0.016856  -0.089054
    35  H    0.000000  -0.000000  -0.000003   0.000054  -0.001629   0.017381
    36  H   -0.000000   0.000000   0.000000   0.000000   0.000036  -0.000076
    37  H   -0.000000   0.000000  -0.000000   0.000000  -0.000000   0.000000
    38  H    0.000000   0.000000  -0.000000  -0.000000   0.000000   0.000000
    39  H    0.000000  -0.000000  -0.000000  -0.000000  -0.000001   0.000000
    40  H    0.000000  -0.000000  -0.000001   0.000002  -0.000369   0.000011
    41  H   -0.000000  -0.000050   0.002006   0.009958  -0.041540  -0.001420
    42  H   -0.000029  -0.000335   0.020770  -0.002581   0.018113  -0.086100
              13         14         15         16         17         18
     1  C   -0.000000  -0.000000   0.000000  -0.000000   0.000000  -0.000000
     2  C   -0.000001   0.000000  -0.000000   0.000000  -0.000000   0.000000
     3  C   -0.000053   0.000001  -0.000000  -0.000000  -0.000000   0.000000
     4  C   -0.000745   0.000005  -0.000003  -0.000000  -0.000000   0.000000
     5  C    0.000011  -0.000000   0.000000   0.000000   0.000000  -0.000000
     6  C    0.000000   0.000000   0.000000  -0.000000  -0.000000   0.000000
     7  C   -0.000004   0.000000  -0.000000  -0.000000  -0.000000   0.000000
     8  C    0.000077  -0.000004   0.000011   0.000000   0.000000  -0.000000
     9  C   -0.001553   0.000036   0.000710   0.000002  -0.000000  -0.000000
    10  C    0.027954  -0.003544   0.020904   0.000011   0.000007  -0.000000
    11  C    0.031812  -0.140870   0.008901   0.025744   0.000001   0.000002
    12  C    0.156506   0.154045  -0.177823  -0.003881  -0.000103   0.000007
    13  C    5.494316   0.228789   0.138609   0.022442   0.001136  -0.000094
    14  C    0.228789   5.510232   0.176289  -0.146359  -0.028103   0.000347
    15  C    0.138609   0.176289   5.613787   0.240284  -0.148141   0.022218
    16  C    0.022442  -0.146359   0.240284   5.548393   0.250698   0.123514
    17  C    0.001136  -0.028103  -0.148141   0.250698   5.441190   0.249264
    18  C   -0.000094   0.000347   0.022218   0.123514   0.249264   5.212643
    19  C    0.000007   0.000015  -0.004471  -0.156393   0.145355   0.157013
    20  C   -0.000004  -0.000368   0.026281   0.046302  -0.175740   0.151201
    21  C    0.000206   0.025193   0.010467   0.056000   0.026612  -0.172554
    22  C   -0.000080  -0.003530  -0.147620   0.025389   0.028741  -0.002230
    23  C   -0.003777   0.028181  -0.004389  -0.136318  -0.003812   0.000168
    24  C   -0.153783   0.005224   0.163319  -0.000964   0.019168   0.000435
    25  C   -0.157317   0.020275  -0.001070   0.000078  -0.000002  -0.000000
    26  C    0.021571  -0.001248  -0.000114  -0.000002   0.000000   0.000000
    27  H    0.000000   0.000000  -0.000000   0.000000   0.000000   0.000000
    28  H   -0.000000   0.000000  -0.000000  -0.000000  -0.000000  -0.000000
    29  H   -0.000052  -0.000000   0.000000   0.000000  -0.000000   0.000000
    30  H    0.000000  -0.000000  -0.000000  -0.000000   0.000000   0.000000
    31  H    0.000000  -0.000000   0.000000  -0.000000   0.000000  -0.000000
    32  H    0.000001  -0.000000   0.000000   0.000000   0.000000  -0.000000
    33  H   -0.000366  -0.000006  -0.001559   0.000031   0.000000   0.000000
    34  H    0.441911  -0.077039   0.016927  -0.000374   0.000004  -0.000001
    35  H   -0.077958   0.424838  -0.058639  -0.039346   0.009103   0.001352
    36  H    0.001542   0.011620  -0.041110  -0.048245   0.417286  -0.081782
    37  H   -0.000001   0.000001  -0.000262   0.015804  -0.074663   0.436674
    38  H   -0.000000  -0.000000   0.000055  -0.001168   0.015152  -0.084752
    39  H   -0.000000   0.000009  -0.000156   0.017059  -0.002341   0.016365
    40  H   -0.000001   0.000046  -0.001886   0.016451  -0.000329  -0.000067
    41  H   -0.000040  -0.000287   0.018108  -0.001700   0.000046  -0.000002
    42  H   -0.020624   0.001041  -0.000055  -0.000001  -0.000000  -0.000000
              19         20         21         22         23         24
     1  C    0.000000  -0.000000   0.000000  -0.000000  -0.000000   0.000000
     2  C    0.000000  -0.000000  -0.000000   0.000000   0.000000   0.000000
     3  C   -0.000000   0.000000  -0.000000   0.000000   0.000000   0.000001
     4  C   -0.000000   0.000000   0.000000  -0.000000   0.000001   0.000120
     5  C    0.000000  -0.000000   0.000000  -0.000000  -0.000000  -0.000004
     6  C    0.000000  -0.000000  -0.000000   0.000000   0.000000  -0.000000
     7  C    0.000000  -0.000000  -0.000000   0.000000   0.000001   0.000004
     8  C   -0.000000   0.000000   0.000000  -0.000001  -0.000054  -0.000602
     9  C    0.000000  -0.000000   0.000008  -0.000117   0.000139   0.023288
    10  C    0.000000  -0.000002  -0.000089   0.000986  -0.031146  -0.153568
    11  C   -0.000002   0.000071  -0.003648   0.021847  -0.145738   0.221930
    12  C   -0.000001   0.000003  -0.000419   0.000332   0.026358   0.015234
    13  C    0.000007  -0.000004   0.000206  -0.000080  -0.003777  -0.153783
    14  C    0.000015  -0.000368   0.025193  -0.003530   0.028181   0.005224
    15  C   -0.004471   0.026281   0.010467  -0.147620  -0.004389   0.163319
    16  C   -0.156393   0.046302   0.056000   0.025389  -0.136318  -0.000964
    17  C    0.145355  -0.175740   0.026612   0.028741  -0.003812   0.019168
    18  C    0.157013   0.151201  -0.172554  -0.002230   0.000168   0.000435
    19  C    5.241473   0.196429   0.154260   0.022189  -0.001412  -0.000044
    20  C    0.196429   5.465550   0.216622  -0.162531   0.019371  -0.000650
    21  C    0.154260   0.216622   5.493275   0.173525   0.150913  -0.170596
    22  C    0.022189  -0.162531   0.173525   5.477435   0.228310   0.133430
    23  C   -0.001412   0.019371   0.150913   0.228310   5.506036   0.193762
    24  C   -0.000044  -0.000650  -0.170596   0.133430   0.193762   5.614234
    25  C    0.000000  -0.000000   0.000002  -0.000000  -0.000416   0.025511
    26  C   -0.000000   0.000000  -0.000001   0.000005   0.000060  -0.003213
    27  H    0.000000   0.000000  -0.000000   0.000000   0.000000  -0.000000
    28  H    0.000000   0.000000   0.000000   0.000000  -0.000000   0.000000
    29  H   -0.000000  -0.000000  -0.000000  -0.000000  -0.000000  -0.000001
    30  H   -0.000000   0.000000   0.000000  -0.000000   0.000000  -0.000000
    31  H    0.000000  -0.000000   0.000000  -0.000000  -0.000000   0.000000
    32  H    0.000000  -0.000000   0.000000  -0.000000   0.000009  -0.000054
    33  H   -0.000000  -0.000000  -0.000065   0.001408   0.013070  -0.040789
    34  H    0.000000  -0.000000   0.000010  -0.000001   0.000050  -0.001826
    35  H   -0.000068   0.000038  -0.000997  -0.000051  -0.000295   0.017757
    36  H    0.015886  -0.001924   0.019615  -0.000286  -0.000019  -0.001615
    37  H   -0.086741   0.015664  -0.001732   0.000028  -0.000001   0.000007
    38  H    0.436607  -0.078766   0.015692  -0.000558   0.000010  -0.000000
    39  H   -0.083430   0.441451  -0.080738  -0.022697   0.001098  -0.000071
    40  H    0.001031  -0.020208  -0.090567   0.442895  -0.076367   0.016952
    41  H    0.000016  -0.000618   0.017160  -0.079132   0.421940  -0.054400
    42  H    0.000000  -0.000000   0.000000  -0.000000   0.000012  -0.000203
              25         26         27         28         29         30
     1  C    0.000018  -0.004233   0.436399  -0.085786   0.015660  -0.083247
     2  C    0.000290   0.022147  -0.084230   0.436077  -0.081491   0.016215
     3  C   -0.029590  -0.146930   0.015157  -0.075159   0.417416  -0.002262
     4  C   -0.152067   0.201495  -0.001210   0.015752  -0.047805   0.017040
     5  C    0.023026   0.007617   0.015729  -0.001650   0.019050  -0.079980
     6  C   -0.000266   0.026595  -0.078933   0.015537  -0.001918   0.440725
     7  C   -0.003499  -0.137093  -0.000541   0.000030  -0.000245  -0.022525
     8  C    0.027176   0.026625   0.000010  -0.000001  -0.000034   0.001143
     9  C    0.015037   0.036453  -0.000000   0.000008  -0.001563  -0.000082
    10  C   -0.151421   0.028605   0.000000  -0.000000   0.000025  -0.000001
    11  C    0.027533  -0.134553   0.000000   0.000000  -0.000018   0.000000
    12  C    0.250117   0.132311  -0.000000  -0.000001   0.001720  -0.000000
    13  C   -0.157317   0.021571   0.000000  -0.000000  -0.000052   0.000000
    14  C    0.020275  -0.001248   0.000000   0.000000  -0.000000  -0.000000
    15  C   -0.001070  -0.000114  -0.000000  -0.000000   0.000000  -0.000000
    16  C    0.000078  -0.000002   0.000000  -0.000000   0.000000  -0.000000
    17  C   -0.000002   0.000000   0.000000  -0.000000  -0.000000   0.000000
    18  C   -0.000000   0.000000   0.000000  -0.000000   0.000000   0.000000
    19  C    0.000000  -0.000000   0.000000   0.000000  -0.000000  -0.000000
    20  C   -0.000000   0.000000   0.000000   0.000000  -0.000000   0.000000
    21  C    0.000002  -0.000001  -0.000000   0.000000  -0.000000   0.000000
    22  C   -0.000000   0.000005   0.000000   0.000000  -0.000000  -0.000000
    23  C   -0.000416   0.000060   0.000000  -0.000000  -0.000000   0.000000
    24  C    0.025511  -0.003213  -0.000000   0.000000  -0.000001  -0.000000
    25  C    5.736710   0.249593  -0.000000  -0.000001   0.010789   0.000009
    26  C    0.249593   5.569760   0.000054  -0.000300  -0.040799  -0.000160
    27  H   -0.000000   0.000054   0.671610  -0.012354  -0.000349  -0.012550
    28  H   -0.000001  -0.000300  -0.012354   0.671180  -0.013322  -0.000338
    29  H    0.010789  -0.040799  -0.000349  -0.013322   0.676869   0.000028
    30  H    0.000009  -0.000160  -0.012550  -0.000338   0.000028   0.678417
    31  H    0.000061  -0.001586  -0.000019  -0.000001   0.000010   0.006596
    32  H   -0.000396   0.016728  -0.000000   0.000000   0.000000  -0.000020
    33  H   -0.002466   0.018296  -0.000000   0.000000   0.000001  -0.000000
    34  H   -0.022136   0.001074   0.000000   0.000000  -0.000016   0.000000
    35  H   -0.000661   0.000014  -0.000000   0.000000   0.000000   0.000000
    36  H   -0.000000  -0.000000  -0.000000   0.000000  -0.000000   0.000000
    37  H   -0.000000  -0.000000   0.000000   0.000000   0.000000   0.000000
    38  H   -0.000000   0.000000   0.000000   0.000000   0.000000   0.000000
    39  H   -0.000000   0.000000   0.000000  -0.000000  -0.000000   0.000000
    40  H   -0.000000   0.000000   0.000000   0.000000   0.000000  -0.000000
    41  H    0.000027  -0.000032   0.000000   0.000000  -0.000000   0.000000
    42  H    0.421893  -0.055504  -0.000000   0.000031   0.001271   0.000001
              31         32         33         34         35         36
     1  C    0.001024   0.000013   0.000000   0.000000   0.000000  -0.000000
     2  C   -0.000068  -0.000002  -0.000000  -0.000000  -0.000000   0.000000
     3  C   -0.000303   0.000056   0.000012   0.000008  -0.000000   0.000000
     4  C    0.015945  -0.001668  -0.000221  -0.000059   0.000000  -0.000000
     5  C   -0.088208   0.016712  -0.000064   0.000000   0.000000   0.000000
     6  C   -0.020140  -0.000566  -0.000002   0.000000  -0.000000   0.000000
     7  C    0.443109  -0.080270   0.001078  -0.000000   0.000000  -0.000000
     8  C   -0.078787   0.440651  -0.020660   0.000001  -0.000000   0.000000
     9  C    0.016789  -0.084789  -0.085682  -0.000008  -0.000003   0.000000
    10  C   -0.000616  -0.022627   0.418402  -0.000437   0.000054   0.000000
    11  C    0.000010   0.000997  -0.052709   0.016856  -0.001629   0.000036
    12  C   -0.000002  -0.000008   0.021282  -0.089054   0.017381  -0.000076
    13  C    0.000000   0.000001  -0.000366   0.441911  -0.077958   0.001542
    14  C   -0.000000  -0.000000  -0.000006  -0.077039   0.424838   0.011620
    15  C    0.000000   0.000000  -0.001559   0.016927  -0.058639  -0.041110
    16  C   -0.000000   0.000000   0.000031  -0.000374  -0.039346  -0.048245
[...]
 0921,0.00005745,0.00000102,-0.00001099,-0.00000527,-0.00000492,0.00003
 293,-0.00004539,0.00000785,-0.00002605,0.00002243,-0.00001439,0.000245
 07,-0.00079107,0.00021192,-0.00008403,-0.00053655,-0.00053834,-0.00270
 218,0.00487306,-0.00807524,-0.00028470,0.00268693,-0.02701380,-0.00814
 337,-0.04172403,0.00534681,0.00053699,0.00456642,0.00010179,-0.0027877
 6,0.00770288,0.00013502,0.00009118,0.00024644,0.00010610,0.00010318,-0
 .00049101,-0.00002954,-0.00008155,0.00007825,-0.00000444,0.00000041,0.
 00001755,0.00000133,-0.00000423,0.00000259,-0.00000035,-0.00000009,0.0
 0000020,-0.00000019,-0.00000038,0.00000040,0.00000031,0.00000014,0.000
 00051,-0.00000014,0.00000015,0.00000046,-0.00000034,-0.00000003,0.0000
 0063,0.00000002,0.00000003,0.00000129,0.00000052,0.00000564,-0.0000148
 7,-0.00000050,-0.00000057,0.00000019,0.00000289,0.00001138,0.00005498,
 -0.00036783,-0.00006513,0.00011375,0.00041844,0.00106505,-0.00290970,0
 .02950565,0.01068908,0.03046131,-0.00000446,-0.00000034,-0.00000034,0.
 00000034,0.00000214,0.00000061,-0.00000364,-0.00000025,-0.00000023,0.0
 0000958,0.00000458,0.00000177,-0.00000528,0.00000100,-0.00000009,0.000
 00147,-0.00000225,-0.00000045,-0.00000318,0.00000240,0.00000051,-0.000
 00447,-0.00001293,-0.00000358,0.00000171,0.00001249,0.00000338,-0.0000
 3069,-0.00003936,-0.00001172,0.00003944,0.00014168,0.00003629,0.000006
 72,-0.00000171,0.00000043,-0.00000221,-0.00012918,-0.00003387,-0.00044
 620,0.00016391,0.00000386,0.00004024,-0.00151841,-0.00040507,-0.005049
 17,0.00123129,-0.00033878,-0.00074211,0.00063191,0.00014752,-0.0019329
 9,0.00285052,0.00011791,0.01111902,0.01888167,0.00530032,-0.09532186,-
 0.08994644,-0.02694313,-0.00737513,-0.02786437,-0.00791172,0.00119339,
 -0.00211319,-0.00024742,0.00016065,0.00036674,0.00010677,0.00013519,-0
 .00019492,-0.00003205,0.00000761,0.00001501,0.00000418,-0.00001023,0.0
 0000334,0.00000035,-0.00000078,-0.00000009,-0.00000010,-0.00000051,-0.
 00000070,-0.00000025,0.00000092,0.00000070,0.00000019,-0.00000108,0.00
 000095,0.00000014,-0.00000227,0.00000064,-0.00000004,0.00000011,0.0000
 0387,0.00000088,-0.00000468,0.00001392,0.00000302,-0.00004930,-0.00000
 780,-0.00000250,0.00002157,-0.00001003,-0.00000152,0.00005498,-0.00008
 684,0.00005118,0.00035525,0.00089347,0.00023970,0.00101318,-0.00071289
 ,0.00019262,0.09714549,-0.00000763,0.00000056,-0.00000021,0.00000014,0
 .00000181,0.00000062,-0.00001164,0.00000003,-0.00000048,0.00001926,0.0
 0000628,0.00000276,-0.00000580,0.00000881,0.00000186,0.00000122,-0.000
 01031,-0.00000245,-0.00000952,0.00000672,0.00000150,-0.00000361,-0.000
 02444,-0.00000634,-0.00000415,-0.00000440,-0.00000123,-0.00001656,-0.0
 0002889,-0.00000685,-0.00000779,0.00003476,-0.00000300,-0.00002311,0.0
 0002059,0.00000560,0.00003303,-0.00004258,-0.00001028,-0.00010960,0.00
 003706,-0.00003730,0.00037882,-0.00017339,-0.00008212,-0.00028120,0.00
 163822,-0.00093762,0.00044746,0.00054482,0.00029767,0.00435695,-0.0012
 5726,-0.00203944,-0.01165915,-0.01689565,-0.00628912,-0.09007906,-0.27
 768798,-0.06781383,0.00022917,-0.00102109,-0.00121064,0.00190568,0.000
 29351,0.00109325,-0.00040300,0.00014105,0.00001748,0.00012070,0.000241
 36,0.00010902,0.00000899,0.00001731,0.00000429,-0.00001079,0.00001018,
 0.00000251,-0.00000364,-0.00000046,-0.00000046,-0.00000182,-0.00000290
 ,-0.00000101,0.00000326,0.00000214,0.00000057,-0.00000203,0.00000327,0
 .00000058,-0.00000537,0.00000190,-0.00000008,0.00000292,0.00000397,0.0
 0000070,0.00000192,0.00000024,-0.00000092,-0.00001648,-0.00000727,0.00
 000786,0.00001711,0.00001001,0.00000241,-0.00007886,-0.00014428,0.0002
 4017,-0.00055750,-0.00084841,-0.00031120,0.00001858,0.00071587,0.00144
 308,0.09626055,0.29397960,-0.00000222,0.00000025,-0.00000058,0.0000000
 9,0.00000075,-0.00000035,-0.00000318,0.00000025,-0.00000112,0.00000557
 ,0.00000182,0.00000121,-0.00000185,0.00000230,0.00000063,0.00000044,-0
 .00000267,-0.00000120,-0.00000257,0.00000226,-0.00000101,-0.00000117,-
 0.00000694,-0.00000265,-0.00000092,-0.00000017,-0.00000076,-0.00000583
 ,-0.00000831,-0.00000903,-0.00000233,0.00000658,0.00004599,-0.00000510
 ,0.00000698,-0.00000536,0.00000805,-0.00002068,0.00000057,-0.00006682,
 -0.00001976,0.00014482,0.00008518,-0.00020377,0.00019122,-0.00072961,-
 0.00084065,0.00493295,0.00009985,0.00030950,-0.00040974,0.00050718,-0.
 00213603,0.00719679,-0.00259158,-0.00433094,0.00326436,-0.02697740,-0.
 06780533,-0.05685734,-0.00065222,-0.00301190,0.00290070,0.00079108,0.0
 0083557,-0.00319776,-0.00009213,0.00006683,-0.00001522,0.00004951,0.00
 008878,-0.00012446,0.00000262,0.00000468,0.00000431,-0.00000330,0.0000
 0342,-0.00000156,-0.00000102,-0.00000024,0.00000031,-0.00000054,-0.000
 00094,0.00000026,0.00000085,0.00000041,0.00000090,-0.00000063,0.000000
 77,0.00000070,-0.00000159,0.00000030,0.00000087,0.00000063,0.00000076,
 0.00000223,-0.00000008,-0.00000015,0.00000424,-0.00000474,0.00000842,-
 0.00003992,0.00000549,0.00000067,0.00000545,0.00005324,0.00023965,-0.0
 0102792,-0.00013523,-0.00021817,0.00015254,0.00038163,0.00139618,-0.00
 447885,0.02946603,0.07554092,0.04693822,-0.00001047,-0.00000832,-0.000
 00285,-0.00000754,0.00000754,0.00000147,-0.00001005,0.00000254,-0.0000
 0007,0.00001045,0.00000918,0.00000296,-0.00001688,-0.00000824,-0.00000
 308,0.00001003,-0.00000515,-0.00000069,0.00000086,0.00003405,0.0000090
 1,-0.00004084,-0.00004530,-0.00001331,0.00005233,0.00006562,0.00002226
 ,-0.00005631,-0.00003811,-0.00002646,0.00030827,-0.00142692,-0.0003619
 3,-0.00040680,0.00004524,0.00002149,-0.00008789,0.00006551,0.00000313,
 0.00017147,0.00000508,0.00006976,-0.00057378,0.00040141,0.00009884,-0.
 00233006,0.00237803,0.00019253,0.00051480,0.00078159,0.00022951,0.0002
 0486,0.00015364,0.00006023,0.00012668,-0.00040220,-0.00009121,0.001010
 24,0.00153861,0.00063428,0.00967504,0.01673347,0.00470275,-0.09919497,
 -0.09455930,-0.02837804,-0.00819003,-0.02909495,-0.00834653,-0.0050293
 4,0.00148839,-0.00049863,-0.00004303,-0.00012729,-0.00003489,0.0000304
 2,-0.00003570,-0.00001084,-0.00000416,-0.00000042,-0.00000041,-0.00000
 254,-0.00000313,-0.00000092,0.00000443,0.00000597,0.00000175,-0.000003
 67,0.00000393,0.00000072,-0.00001021,0.00000205,-0.00000024,0.00000401
 ,0.00001231,0.00000307,0.00001164,0.00003367,0.00000880,-0.00000042,-0
 .00001450,-0.00001205,-0.00001571,-0.00005355,-0.00001703,-0.00017443,
 0.00021572,0.00003736,-0.00001876,-0.00003448,-0.00001260,0.00002792,-
 0.00002416,-0.00001292,-0.00030325,-0.00044896,-0.00014621,0.10324104,
 -0.00000836,0.00000158,-0.00000023,0.00000134,0.00000194,0.00000062,-0
 .00001215,-0.00000063,-0.00000127,0.00002189,0.00000402,0.00000209,-0.
 00000594,0.00000935,0.00000256,0.00000055,-0.00000964,-0.00000245,-0.0
 0001239,0.00000311,0.00000064,-0.00000128,-0.00002807,-0.00000323,-0.0
 0000379,-0.00001848,0.00000285,0.00000509,0.00000199,-0.00005156,0.000
 05945,-0.00009912,-0.00007410,-0.00010579,0.00004444,0.00014930,0.0000
 1627,0.00000420,-0.00003077,-0.00007306,-0.00003555,0.00021767,0.00062
 884,0.00032640,0.00025323,0.00412947,-0.00122280,-0.00114970,-0.001110
 10,-0.00075183,-0.00028749,0.00005686,0.00019496,0.00008382,0.00033396
 ,0.00008332,0.00006146,-0.00233676,0.00069828,0.00072349,-0.01138855,-
 0.01745564,-0.00621450,-0.09484539,-0.27378449,-0.06708896,0.00111600,
 0.00093370,-0.00090887,0.00007222,0.00215973,-0.00169733,0.00002220,-0
 .00001555,0.00000046,-0.00002162,0.00002492,-0.00000931,-0.00000311,-0
 .00000037,-0.00000044,-0.00000179,-0.00000265,-0.00000058,0.00000296,0
 .00000214,0.00000043,-0.00000204,0.00000296,0.00000039,-0.00000549,0.0
 0000198,-0.00000031,0.00000269,0.00000417,-0.00000023,-0.00001578,-0.0
 0001543,-0.00000762,-0.00001533,-0.00000323,-0.00003519,0.00002310,0.0
 0001580,-0.00000324,0.00024958,-0.00026826,-0.00008233,0.00005585,0.00
 003953,0.00000376,0.00004176,-0.00001700,-0.00003584,0.00114917,0.0004
 2068,0.00013905,0.10234483,0.28816441,-0.00000286,-0.00000023,0.000000
 17,-0.00000013,0.00000102,0.00000013,-0.00000387,-0.00000033,0.0000009
 5,0.00000624,0.00000128,0.00000208,-0.00000249,0.00000241,-0.00000156,
 0.00000079,-0.00000282,-0.00000070,-0.00000299,0.00000362,-0.00000170,
 -0.00000193,-0.00000605,-0.00001756,0.00000433,0.00000730,-0.00002827,
 -0.00001530,-0.00005433,0.00018777,0.00002215,-0.00016940,0.00016004,-
 0.00001754,0.00015898,-0.00051961,-0.00000959,-0.00002761,0.00011956,0
 .00004956,0.00022267,-0.00083530,0.00015761,0.00023865,-0.00042577,0.0
 0064511,-0.00126200,0.00396632,-0.00025932,-0.00016620,0.00002572,0.00
 003522,0.00009002,-0.00008978,0.00009901,0.00001426,-0.00006161,-0.000
 36714,0.00097197,-0.00245375,-0.00256412,-0.00441141,0.00246370,-0.028
 45196,-0.06707061,-0.05684639,-0.00053987,-0.00284589,0.00395782,-0.00
 086458,-0.00160653,0.00827556,0.00000374,-0.00000913,-0.00001394,-0.00
 000720,-0.00001021,0.00005249,-0.00000110,-0.00000026,0.00000041,-0.00
 000057,-0.00000067,-0.00000106,0.00000097,0.00000062,0.00000144,-0.000
 00082,0.00000077,0.00000109,-0.00000219,0.00000018,0.00000171,0.000000
 58,0.00000039,0.00000587,-0.00000398,-0.00000445,0.00000874,-0.0000122
 7,-0.00003513,0.00011927,0.00000278,-0.00000816,0.00003216,0.00004611,
 -0.00008450,0.00009340,0.00001074,-0.00000204,0.00003901,0.00000411,-0
 .00004007,0.00012198,0.00026675,0.00003658,0.00019428,0.03143684,0.074
 45970,0.04666384,0.00000656,0.00001165,0.00000333,0.00001170,0.0000001
 7,0.00000165,0.00001123,-0.00001233,-0.00000320,0.00000507,0.00000556,
 -0.00000001,0.00001759,-0.00000097,0.00000009,-0.00001298,0.00001248,0
 .00000277,-0.00002371,-0.00002944,-0.00000807,0.00002306,-0.00000963,0
 .00000102,-0.00009170,0.00009423,0.00003388,-0.00303085,-0.00210321,-0
 .00074352,-0.00058494,0.00122493,0.00043279,0.00010995,-0.00002896,0.0
 0000060,0.00005246,-0.00000440,0.00001019,0.00060354,-0.00040584,-0.00
 008152,-0.00100819,-0.00237607,-0.00095696,-0.00032588,-0.00046902,-0.
 00011725,0.00024549,-0.00001053,0.00005986,-0.00010858,-0.00018634,-0.
 00006254,-0.00047827,0.00001041,0.00001723,-0.00000573,0.00128698,0.00
 032482,-0.00468647,-0.00242470,-0.00151521,-0.01518787,0.02732598,0.00
 574120,-0.15159235,0.13040592,0.02644428,0.01169566,-0.00930882,-0.001
 86772,0.00005651,0.00010262,0.00002882,-0.00003131,0.00003717,0.000006
 84,0.00000587,0.00000144,0.00000062,0.00000363,0.00000419,0.00000126,-
 0.00000735,-0.00000293,-0.00000134,0.00000260,-0.00000502,-0.00000128,
 0.00001457,-0.00000448,-0.00000028,-0.00000784,0.00001808,0.00000221,-
 0.00368710,-0.00077080,-0.00052018,-0.00001427,0.00002100,0.00000260,-
 0.00007445,-0.00018678,-0.00004917,-0.00001733,0.00004251,0.00000772,-
 0.00000452,0.00001713,-0.00000114,-0.00008797,0.00011275,0.00002433,-0
 .00001600,-0.00005890,-0.00002948,0.00117354,-0.00035839,0.00034091,0.
 16702929,-0.00000922,0.00000310,-0.00000021,0.00000669,0.00002082,0.00
 000924,0.00003097,-0.00001885,-0.00000585,0.00001350,0.00009367,0.0000
 1792,-0.00001738,-0.00000773,-0.00000629,-0.00000097,0.00000986,0.0000
 0402,-0.00000946,-0.00003483,-0.00000534,-0.00004243,-0.00000355,0.000
 00453,-0.00017892,0.00082449,0.00026367,0.00079165,-0.00080988,-0.0001
 8152,0.00170148,-0.00001579,0.00072475,-0.00009462,-0.00015992,-0.0000
 4324,0.00004299,0.00001161,0.00003786,0.00121829,-0.00056754,-0.000130
 40,-0.00379694,-0.00253978,-0.00202149,-0.00071702,0.00017399,0.000099
 09,0.00011059,-0.00002385,0.00018972,-0.00005571,-0.00003813,-0.000043
 37,-0.00000340,0.00006602,0.00019904,0.00002131,0.00006225,-0.00001228
 ,-0.00109050,0.00166859,-0.00200923,-0.00378486,0.00579562,-0.00014022
 ,0.13092528,-0.23641573,-0.04275653,0.01738151,-0.01678342,-0.00407755
 ,0.00009821,0.00014124,0.00003749,0.00016071,0.00003107,0.00001529,0.0
 0000433,0.00000151,0.00000015,0.00000524,0.00000297,0.00000090,-0.0000
 0333,0.00000336,0.00000020,-0.00000094,-0.00000208,-0.00000118,0.00001
 298,-0.00000120,0.00000031,-0.00001608,0.00003244,-0.00000055,-0.00047
 504,0.00187481,0.00011308,-0.00005613,0.00001608,-0.00000715,-0.000187
 75,-0.00035240,-0.00008750,-0.00002341,0.00001434,-0.00000648,0.000019
 50,-0.00000059,-0.00002016,-0.00001041,0.00000892,0.00000499,0.0000101
 5,0.00001401,-0.00004906,0.00001781,0.00059292,0.00159829,-0.14199507,
 0.24630367,-0.00000207,0.00000113,0.00000178,0.00000333,0.00000882,-0.
 00001078,0.00000799,-0.00000862,0.00000975,0.00000204,0.00001741,0.000
 03230,-0.00000415,-0.00000524,0.00001069,-0.00000070,0.00000488,-0.000
 00472,-0.00000291,-0.00000662,-0.00001842,-0.00000746,0.00000663,-0.00
 003037,-0.00003671,0.00028119,-0.00016999,0.00000453,-0.00036713,-0.00
 000555,0.00055594,0.00069419,-0.00218328,-0.00001637,-0.00003903,-0.00
 002720,0.00002244,0.00003482,-0.00011381,0.00033816,-0.00023454,0.0002
 0047,-0.00132413,-0.00193039,0.00375735,-0.00018134,0.00011499,-0.0003
 6930,0.00009116,0.00018196,-0.00067775,-0.00002879,-0.00005175,0.00010
 067,0.00001366,0.00019993,-0.00065257,-0.00000224,0.00006887,0.0001327
 0,-0.00117045,-0.00209477,0.00855716,-0.00229800,0.00185451,0.00573101
 ,0.02657849,-0.04278983,-0.04781957,0.00502919,-0.00578885,0.00213565,
 0.00002768,0.00003777,0.00003208,0.00003877,0.00000737,0.00001615,0.00
 000137,-0.00000004,0.00000210,0.00000154,0.00000083,0.00000112,-0.0000
 0145,0.00000022,0.00000175,-0.00000022,-0.00000144,0.00000186,0.000004
 23,-0.00000081,0.00000089,-0.00000662,0.00000164,0.00003057,-0.0004437
 5,0.00009411,0.00131522,-0.00001733,-0.00000221,0.00002815,-0.00004942
 ,-0.00008743,-0.00008614,-0.00000932,-0.00000225,0.00003242,-0.0000005
 3,-0.00002032,0.00007700,-0.00000750,0.00001289,-0.00001012,-0.0000116
 4,-0.00005349,0.00019183,0.00043812,0.00157417,-0.00515302,-0.02753504
 ,0.04828617,0.03492065,0.00002244,-0.00005125,-0.00001057,-0.00007820,
 -0.00025615,-0.00004671,-0.00264648,0.00151966,0.00022215,0.00007305,-
 0.00129260,-0.00008892,0.00009662,-0.00002789,0.00000293,0.00012132,-0
 .00010817,-0.00003045,0.00011949,0.00004771,0.00003534,0.00066447,0.00
 070224,0.00020969,-0.00251288,0.00270129,0.00012536,-0.00068254,0.0005
 6921,0.00012796,-0.00494526,0.00121658,-0.00037503,-0.00818947,-0.0286
 1911,-0.00822378,0.00090348,-0.00226326,-0.00026228,0.00018285,0.00037
 302,0.00011010,0.00012720,-0.00021991,-0.00003773,0.00003989,0.0001507
 4,0.00003778,-0.00002784,-0.00003836,-0.00001113,-0.00000156,0.0000074
 7,0.00000203,-0.00001809,0.,-0.00000098,0.00000909,0.00001834,0.000005
 34,0.00000327,-0.00000668,-0.00000102,-0.00000723,-0.00010749,-0.00002
 916,-0.00042048,0.00014909,0.00000187,0.00002064,-0.00147404,-0.000392
 39,-0.08905018,-0.08416951,-0.02501859,0.01235531,0.01716708,0.0049297
 1,0.00003051,-0.00003690,-0.00001308,0.00001524,-0.00000323,-0.0000009
 6,-0.00317144,-0.00040668,-0.00039027,0.00002343,-0.00001456,-0.000002
 67,-0.00002485,-0.00002531,-0.00001043,-0.00016902,0.00024440,0.000050
 70,0.00000818,-0.00007441,0.00004641,-0.00035568,0.00118526,0.00027142
 ,-0.00000803,0.00001262,-0.00001536,-0.00000521,0.00001626,0.00000357,
 -0.00000472,0.00000099,-0.00000023,-0.00000024,0.00000196,0.00000041,0
 .00000264,0.00000040,0.00000028,-0.00004692,-0.00000697,-0.00000175,0.
 00001735,-0.00000358,-0.00000053,0.09752987,-0.00012737,0.00000277,-0.
 00000247,-0.00005247,0.00073669,0.00028570,-0.00096828,-0.00062477,-0.
 00022697,-0.00182478,-0.00054659,0.00071068,0.00015247,-0.00010846,-0.
 00000236,-0.00009048,0.00008192,-0.00002605,-0.00003622,-0.00000931,0.
 00005712,-0.00097187,-0.00064400,-0.00028666,0.00432165,-0.00092143,-0
 .00161963,0.00039106,0.00046935,0.00024565,-0.00032053,0.00169257,-0.0
 0108373,-0.00041802,-0.00179870,-0.00171426,0.00228568,0.00042396,0.00
 132261,-0.00035479,0.00012896,0.00001858,0.00011267,0.00019016,0.00010
 045,-0.00001193,0.00002946,-0.00000819,-0.00001242,-0.00002302,-0.0000
 0445,-0.00001175,-0.00000939,-0.00000238,-0.00001778,0.00000826,0.0000
 0173,0.00001155,0.00001683,0.00000517,-0.00001857,0.00002008,0.0000060
 0,0.00002781,-0.00002921,-0.00000947,-0.00010737,0.00003898,-0.0000359
 0,0.00032145,-0.00024233,-0.00009366,-0.08484833,-0.28442434,-0.069099
 75,-0.00966194,-0.01745126,-0.00633213,-0.00003899,0.00006928,-0.00000
 676,0.00003370,-0.00001097,-0.00000511,-0.00058555,0.00169876,0.000071
 59,0.00001053,0.00001045,0.00000170,0.00005202,0.00002244,-0.00000013,
 0.00021237,-0.00027477,-0.00006391,-0.00007440,-0.00017883,0.00021146,
 -0.00043729,0.00044634,0.00003874,-0.00005384,0.00001353,-0.00007291,-
 0.00000039,0.00000147,-0.00000085,-0.00000587,0.00000410,-0.00000004,-
 0.00000502,0.00000020,-0.00000058,-0.00000040,-0.00000544,-0.00000139,
 -0.00001551,-0.00000780,0.00000934,0.00001744,0.00000790,0.00000025,0.
 09312174,0.30119617,-0.00003024,0.00000241,-0.00002060,0.00000592,0.00
 027264,-0.00031111,-0.00042075,-0.00006745,-0.00003109,-0.00022643,0.0
 0074480,-0.00357168,0.00004954,-0.00001393,-0.00006191,-0.00002588,-0.
 00002718,0.00015159,0.00001365,0.00006250,-0.00022233,-0.00022291,-0.0
 0017932,0.00016356,0.00054407,-0.00172352,0.00600819,0.00008193,0.0002
 5707,-0.00031257,-0.00077222,-0.00098518,0.00550288,-0.00093647,-0.003
 52242,0.00376134,0.00091319,0.00103095,-0.00380232,-0.00007797,0.00006
 524,-0.00001911,0.00004821,0.00007913,-0.00014707,-0.00000426,0.000002
 24,0.00005849,-0.00000442,-0.00000612,-0.00001074,-0.00000294,-0.00000
 115,-0.00000358,-0.00000557,0.00000287,-0.00000245,0.00000359,0.000005
 60,0.00000137,-0.00000409,0.00000676,-0.00000625,0.00000580,-0.0000181
 5,0.00001004,-0.00006441,-0.00001946,0.00014212,0.00007157,-0.00020878
 ,0.00015053,-0.02519400,-0.06905623,-0.05752835,-0.00200304,-0.0046119
 4,0.00333588,-0.00001362,-0.00000663,0.00008318,0.00000858,-0.00000748
 ,0.00001578,-0.00043649,0.00008306,0.00126990,0.00000381,0.00000009,0.
 00000674,0.00000955,-0.00000509,0.00003515,0.00004242,-0.00006186,0.00
 001199,0.00004642,0.00021146,-0.00095801,-0.00014785,0.00014277,0.0002
 1532,-0.00003253,-0.00006865,0.00026252,-0.00000073,0.00000021,0.00000
 469,-0.00000200,0.00000040,0.00000277,-0.00000139,-0.00000013,0.000001
 08,0.00000008,-0.00000134,-0.00000051,-0.00000395,0.00000989,-0.000045
 49,0.00000490,-0.00000110,0.00001128,0.02878095,0.07761299,0.04584878\
 \-0.00001307,-0.00001284,-0.00000416,-0.00003955,-0.00001711,-0.000006
 96,0.00001720,0.00001685,0.00000546,-0.00002125,-0.00002518,-0.0000078
 7,-0.00011681,0.00008534,0.00001456,0.00005327,-0.00006667,-0.00001381
 ,0.00008000,-0.00002527,-0.00000140,-0.00008974,-0.00005304,-0.0000194
 6,0.00012069,0.00017049,0.00005179,-0.00005419,-0.00007542,-0.00002296
 ,0.00003357,0.00004186,0.00001297,-0.00009633,-0.00018170,-0.00005313,
 0.00008470,0.00004745,0.00001769,-0.00005767,-0.00001679,-0.00000804,0
 .00000374,-0.00000758,-0.00000172,-0.00003169,-0.00001338,-0.00000549,
 0.00002721,-0.00001208,-0.00000138,0.00002765,-0.00002032,-0.00000348,
 0.00000250,0.00000097,0.00000041,-0.00003261,-0.00009377,-0.00002632,0
 .00009765,0.00014444,0.00004359,-0.00006201,-0.00004359,-0.00001524,0.
 00003552,0.00000762,0.00000425,0.00000297,0.00000243,0.00000082,0.0000
 2373,0.00011067,0.00003012,0.00000715,-0.00007665,-0.00001935,0.000011
 95,0.00000818,0.00000288,0.00000648,0.00000772,0.00000241,0.00000309,0
 .00000522,0.00000155,0.00001357,0.00002778,0.00000805,-0.00001993,-0.0
 0000056,-0.00000142,0.00002194,0.00000813,0.00000351,-0.00000305,0.000
 02194,0.00000548,-0.00002780,-0.00000638,-0.00000343,-0.00001321,0.000
 01251,0.00000239,-0.00000062,0.00001584,0.00000405,-0.00000254,0.00000
 844,0.00000202,-0.00001261,0.00000959,0.00000167,-0.00001275,0.0000231
 0,0.00000515,0.00002438,0.00000531,0.00000294,-0.00000015,-0.00000618,
 -0.00000161,0.00000863,-0.00002737,-0.00000652\\\@
 The archive entry for this job was punched.


 I SUPPOSE A BABY LLAMA HAS A MMAMA AND A PPOPA.
     -- RICHARD AMOUR
 Job cpu time:       0 days  1 hours 22 minutes 36.6 seconds.
 Elapsed time:       0 days  0 hours 10 minutes 19.6 seconds.
 File lengths (MBytes):  RWF=    772 Int=      0 D2E=      0 Chk=     15 Scr=      1
 Normal termination of Gaussian 16 at Tue Oct  8 21:31:10 2024.
