 Entering Gaussian System, Link 0=g16
 Initial command:
 /opt/g16/l1.exe "/tmp/Gau-1165859.inp" -scrdir="/tmp/"
 Entering Link 1 = /opt/g16/l1.exe PID=   1165861.
  
 Copyright (c) 1988-2019, Gaussian, Inc.  All Rights Reserved.
  
 This is part of the Gaussian(R) 16 program.  It is based on
 the Gaussian(R) 09 system (copyright 2009, Gaussian, Inc.),
 the Gaussian(R) 03 system (copyright 2003, Gaussian, Inc.),
 the Gaussian(R) 98 system (copyright 1998, Gaussian, Inc.),
 the Gaussian(R) 94 system (copyright 1995, Gaussian, Inc.),
 the Gaussian 92(TM) system (copyright 1992, Gaussian, Inc.),
 the Gaussian 90(TM) system (copyright 1990, Gaussian, Inc.),
 the Gaussian 88(TM) system (copyright 1988, Gaussian, Inc.),
 the Gaussian 86(TM) system (copyright 1986, Carnegie Mellon
 University), and the Gaussian 82(TM) system (copyright 1983,
 Carnegie Mellon University). Gaussian is a federally registered
 trademark of Gaussian, Inc.
  
 This software contains proprietary and confidential information,
 including trade secrets, belonging to Gaussian, Inc.
  
 This software is provided under written license and may be
 used, copied, transmitted, or stored only in accord with that
 written license.
  
 The following legend is applicable only to US Government
 contracts under FAR:
  
                    RESTRICTED RIGHTS LEGEND
  
 Use, reproduction and disclosure by the US Government is
 subject to restrictions as set forth in subparagraphs (a)
 and (c) of the Commercial Computer Software - Restricted
 Rights clause in FAR 52.227-19.
  
 Gaussian, Inc.
 340 Quinnipiac St., Bldg. 40, Wallingford CT 06492
  
  
 ---------------------------------------------------------------
 Warning -- This program may not be used in any manner that
 competes with the business of Gaussian, Inc. or will provide
 assistance to any competitor of Gaussian, Inc.  The licensee
 of this program is prohibited from giving any competitor of
 Gaussian, Inc. access to this program.  By using this program,
 the user acknowledges that Gaussian, Inc. is engaged in the
 business of creating and licensing software in the field of
 computational chemistry and represents and warrants to the
 licensee that it is not a competitor of Gaussian, Inc. and that
 it will not use this program in any manner prohibited above.
 ---------------------------------------------------------------
  

 Cite this work as:
 Gaussian 16, Revision C.01,
 M. J. Frisch, G. W. Trucks, H. B. Schlegel, G. E. Scuseria, 
 M. A. Robb, J. R. Cheeseman, G. Scalmani, V. Barone, 
 G. A. Petersson, H. Nakatsuji, X. Li, M. Caricato, A. V. Marenich, 
 J. Bloino, B. G. Janesko, R. Gomperts, B. Mennucci, H. P. Hratchian, 
 J. V. Ortiz, A. F. Izmaylov, J. L. Sonnenberg, D. Williams-Young, 
 F. Ding, F. Lipparini, F. Egidi, J. Goings, B. Peng, A. Petrone, 
 T. Henderson, D. Ranasinghe, V. G. Zakrzewski, J. Gao, N. Rega, 
 G. Zheng, W. Liang, M. Hada, M. Ehara, K. Toyota, R. Fukuda, 
 J. Hasegawa, M. Ishida, T. Nakajima, Y. Honda, O. Kitao, H. Nakai, 
 T. Vreven, K. Throssell, J. A. Montgomery, Jr., J. E. Peralta, 
 F. Ogliaro, M. J. Bearpark, J. J. Heyd, E. N. Brothers, K. N. Kudin, 
 V. N. Staroverov, T. A. Keith, R. Kobayashi, J. Normand, 
 K. Raghavachari, A. P. Rendell, J. C. Burant, S. S. Iyengar, 
 J. Tomasi, M. Cossi, J. M. Millam, M. Klene, C. Adamo, R. Cammi, 
 J. W. Ochterski, R. L. Martin, K. Morokuma, O. Farkas, 
 J. B. Foresman, and D. J. Fox, Gaussian, Inc., Wallingford CT, 2019.
 
 ******************************************
 Gaussian 16:  ES64L-G16RevC.01  3-Jul-2019
                 8-Oct-2024 
 ******************************************
 %nprocshared=8
 Will use up to    8 processors via shared memory.
 %mem=10400MB
 ----------------------------------------------------------------------
 #N opt freq B3LYP/def2SVPP symm=veryloose em=gd3bj scale=0.961 press=0
 .987
 ----------------------------------------------------------------------
 1/18=20,19=15,26=3,38=1,113=-987000,114=961000/1,3;
 2/9=110,12=2,17=2,18=2,40=1/2;
 3/5=43,7=202,11=2,25=1,30=1,71=1,74=-5,124=41/1,2,3;
 4//1;
 5/5=2,38=5/2;
 6/7=2,8=2,9=2,10=2,28=1/1;
 7//1,2,3,16;
 1/18=20,19=15,26=3/3(2);
 2/9=110/2;
 99//99;
 2/9=110/2;
 3/5=43,7=202,11=2,25=1,30=1,71=1,74=-5,124=41/1,2,3;
 4/5=5,16=3,69=1/1;
 5/5=2,38=5/2;
 7//1,2,3,16;
 1/18=20,19=15,26=3/3(-5);
 2/9=110/2;
 6/7=2,8=2,9=2,10=2,19=2,28=1/1;
 99/9=1/99;
 ------------------------------------------
 c1ccc2cc3cc4c(ccc5ccc6ccccc6c54)cc3cc2c1_2
 ------------------------------------------
 Symbolic Z-matrix:
 Charge =  0 Multiplicity = 1
 C                     6.5458    0.5016   -0.4878 
 C                     6.0749    1.7735   -0.177 
 C                     4.7101    1.98      0.0296 
 C                     3.7988    0.9158   -0.0723 
 C                     2.4218    1.1058    0.1313 
 C                     1.5089    0.0414    0.0231 
 C                     0.1244    0.227     0.217 
 C                    -0.8433   -0.8047    0.087 
 C                    -0.3035   -2.1001   -0.123 
 C                    -1.1339   -3.2149   -0.0843 
 C                    -2.4808   -3.0762    0.2139 
 C                    -3.0558   -1.8151    0.3822 
 C                    -4.4116   -1.7697    0.7138 
 C                    -5.0722   -0.5601    0.8651 
 C                    -4.4188    0.6361    0.5914 
 C                    -5.1558    1.8317    0.6632 
 C                    -4.5902    3.0477    0.3002 
 C                    -3.2903    3.0704   -0.1709 
 C                    -2.549     1.8839   -0.2276 
 C                    -3.0489    0.6287    0.2102 
 C                    -2.2918   -0.6263    0.2217 
 C                     1.073    -2.298    -0.3345 
 C                     1.9866   -1.2396   -0.2786 
 C                     3.3637   -1.4366   -0.484 
 C                     4.2763   -0.3736   -0.387 
 C                     5.6527   -0.5659   -0.5919 
 H                     7.6082    0.3385   -0.6489 
 H                     6.7687    2.6061   -0.0949 
 H                     4.3613    2.9814    0.2719 
 H                     2.0529    2.1011    0.3728 
 H                    -0.1888    1.2127    0.5467 
 H                    -0.7334   -4.2159   -0.2294 
 H                    -3.0839   -3.9784    0.301 
 H                    -4.9762   -2.6869    0.8721 
 H                    -6.1234   -0.5713    1.1449 
 H                    -6.196     1.8201    0.9836 
 H                    -5.1751    3.9616    0.3484 
 H                    -2.8492    4.0022   -0.5149 
 H                    -1.573     1.9574   -0.6963 
 H                     1.4461   -3.3038   -0.5228 
 H                     3.7309   -2.4343   -0.7172 
 H                     6.0399   -1.5529   -0.8348 
 

 GradGradGradGradGradGradGradGradGradGradGradGradGradGradGradGradGradGrad
 Berny optimization.
 Initialization pass.
                           ----------------------------
                           !    Initial Parameters    !
                           ! (Angstroms and Degrees)  !
 --------------------------                            --------------------------
 ! Name  Definition              Value          Derivative Info.                !
 --------------------------------------------------------------------------------
 ! R1    R(1,2)                  1.3914         estimate D2E/DX2                !
 ! R2    R(1,26)                 1.3957         estimate D2E/DX2                !
 ! R3    R(1,27)                 1.0869         estimate D2E/DX2                !
 ! R4    R(2,3)                  1.3957         estimate D2E/DX2                !
 ! R5    R(2,28)                 1.0869         estimate D2E/DX2                !
 ! R6    R(3,4)                  1.4048         estimate D2E/DX2                !
 ! R7    R(3,29)                 1.0877         estimate D2E/DX2                !
 ! R8    R(4,5)                  1.4049         estimate D2E/DX2                !
 ! R9    R(4,25)                 1.4105         estimate D2E/DX2                !
 ! R10   R(5,6)                  1.4064         estimate D2E/DX2                !
 ! R11   R(5,30)                 1.0886         estimate D2E/DX2                !
 ! R12   R(6,7)                  1.4103         estimate D2E/DX2                !
 ! R13   R(6,23)                 1.4001         estimate D2E/DX2                !
 ! R14   R(7,8)                  1.4205         estimate D2E/DX2                !
 ! R15   R(7,31)                 1.0855         estimate D2E/DX2                !
 ! R16   R(8,9)                  1.419          estimate D2E/DX2                !
 ! R17   R(8,21)                 1.4656         estimate D2E/DX2                !
 ! R18   R(9,10)                 1.3906         estimate D2E/DX2                !
 ! R19   R(9,22)                 1.4066         estimate D2E/DX2                !
 ! R20   R(10,11)                1.3865         estimate D2E/DX2                !
 ! R21   R(10,32)                1.0879         estimate D2E/DX2                !
 ! R22   R(11,12)                1.3962         estimate D2E/DX2                !
 ! R23   R(11,33)                1.0887         estimate D2E/DX2                !
 ! R24   R(12,13)                1.3965         estimate D2E/DX2                !
 ! R25   R(12,21)                1.4222         estimate D2E/DX2                !
 ! R26   R(13,14)                1.3865         estimate D2E/DX2                !
 ! R27   R(13,34)                1.0886         estimate D2E/DX2                !
 ! R28   R(14,15)                1.3902         estimate D2E/DX2                !
 ! R29   R(14,35)                1.0879         estimate D2E/DX2                !
 ! R30   R(15,16)                1.4063         estimate D2E/DX2                !
 ! R31   R(15,20)                1.422          estimate D2E/DX2                !
 ! R32   R(16,17)                1.3894         estimate D2E/DX2                !
 ! R33   R(16,36)                1.0885         estimate D2E/DX2                !
 ! R34   R(17,18)                1.3828         estimate D2E/DX2                !
 ! R35   R(17,37)                1.0861         estimate D2E/DX2                !
 ! R36   R(18,19)                1.4002         estimate D2E/DX2                !
 ! R37   R(18,38)                1.0868         estimate D2E/DX2                !
 ! R38   R(19,20)                1.4202         estimate D2E/DX2                !
 ! R39   R(19,39)                1.0852         estimate D2E/DX2                !
 ! R40   R(20,21)                1.4657         estimate D2E/DX2                !
 ! R41   R(22,23)                1.3993         estimate D2E/DX2                !
 ! R42   R(22,40)                1.0892         estimate D2E/DX2                !
 ! R43   R(23,24)                1.4062         estimate D2E/DX2                !
 ! R44   R(24,25)                1.4044         estimate D2E/DX2                !
 ! R45   R(24,41)                1.0884         estimate D2E/DX2                !
 ! R46   R(25,26)                1.4048         estimate D2E/DX2                !
 ! R47   R(26,42)                1.0877         estimate D2E/DX2                !
 ! A1    A(2,1,26)             119.9499         estimate D2E/DX2                !
 ! A2    A(2,1,27)             120.0727         estimate D2E/DX2                !
 ! A3    A(26,1,27)            119.9774         estimate D2E/DX2                !
 ! A4    A(1,2,3)              119.9499         estimate D2E/DX2                !
 ! A5    A(1,2,28)             120.0712         estimate D2E/DX2                !
 ! A6    A(3,2,28)             119.9789         estimate D2E/DX2                !
 ! A7    A(2,3,4)              120.7659         estimate D2E/DX2                !
 ! A8    A(2,3,29)             118.865          estimate D2E/DX2                !
 ! A9    A(4,3,29)             120.3691         estimate D2E/DX2                !
 ! A10   A(3,4,5)              121.5255         estimate D2E/DX2                !
 ! A11   A(3,4,25)             119.2803         estimate D2E/DX2                !
 ! A12   A(5,4,25)             119.1941         estimate D2E/DX2                !
 ! A13   A(4,5,6)              121.5141         estimate D2E/DX2                !
 ! A14   A(4,5,30)             119.2064         estimate D2E/DX2                !
 ! A15   A(6,5,30)             119.2786         estimate D2E/DX2                !
 ! A16   A(5,6,7)              121.8063         estimate D2E/DX2                !
 ! A17   A(5,6,23)             119.1803         estimate D2E/DX2                !
 ! A18   A(7,6,23)             119.0127         estimate D2E/DX2                !
 ! A19   A(6,7,8)              124.0994         estimate D2E/DX2                !
 ! A20   A(6,7,31)             116.3917         estimate D2E/DX2                !
 ! A21   A(8,7,31)             119.3897         estimate D2E/DX2                !
 ! A22   A(7,8,9)              114.6727         estimate D2E/DX2                !
 ! A23   A(7,8,21)             125.2022         estimate D2E/DX2                !
 ! A24   A(9,8,21)             120.045          estimate D2E/DX2                !
 ! A25   A(8,9,10)             120.0365         estimate D2E/DX2                !
 ! A26   A(8,9,22)             121.53           estimate D2E/DX2                !
 ! A27   A(10,9,22)            118.4078         estimate D2E/DX2                !
 ! A28   A(9,10,11)            120.3903         estimate D2E/DX2                !
 ! A29   A(9,10,32)            120.9367         estimate D2E/DX2                !
 ! A30   A(11,10,32)           118.5798         estimate D2E/DX2                !
 ! A31   A(10,11,12)           121.089          estimate D2E/DX2                !
 ! A32   A(10,11,33)           118.1939         estimate D2E/DX2                !
 ! A33   A(12,11,33)           120.7124         estimate D2E/DX2                !
 ! A34   A(11,12,13)           117.2467         estimate D2E/DX2                !
 ! A35   A(11,12,21)           121.3435         estimate D2E/DX2                !
 ! A36   A(13,12,21)           121.4098         estimate D2E/DX2                !
 ! A37   A(12,13,14)           121.1202         estimate D2E/DX2                !
 ! A38   A(12,13,34)           120.7079         estimate D2E/DX2                !
 ! A39   A(14,13,34)           118.1681         estimate D2E/DX2                !
 ! A40   A(13,14,15)           120.347          estimate D2E/DX2                !
 ! A41   A(13,14,35)           118.6513         estimate D2E/DX2                !
 ! A42   A(15,14,35)           120.9074         estimate D2E/DX2                !
 ! A43   A(14,15,16)           118.3687         estimate D2E/DX2                !
 ! A44   A(14,15,20)           120.0718         estimate D2E/DX2                !
 ! A45   A(16,15,20)           121.5322         estimate D2E/DX2                !
 ! A46   A(15,16,17)           121.1575         estimate D2E/DX2                !
 ! A47   A(15,16,36)           120.4493         estimate D2E/DX2                !
 ! A48   A(17,16,36)           118.3767         estimate D2E/DX2                !
 ! A49   A(16,17,18)           119.0819         estimate D2E/DX2                !
 ! A50   A(16,17,37)           120.3726         estimate D2E/DX2                !
 ! A51   A(18,17,37)           120.5            estimate D2E/DX2                !
 ! A52   A(17,18,19)           119.8392         estimate D2E/DX2                !
 ! A53   A(17,18,38)           120.2276         estimate D2E/DX2                !
 ! A54   A(19,18,38)           119.9226         estimate D2E/DX2                !
 ! A55   A(18,19,20)           123.3726         estimate D2E/DX2                !
 ! A56   A(18,19,39)           115.865          estimate D2E/DX2                !
 ! A57   A(20,19,39)           120.6344         estimate D2E/DX2                !
 ! A58   A(15,20,19)           114.6536         estimate D2E/DX2                !
 ! A59   A(15,20,21)           119.9983         estimate D2E/DX2                !
 ! A60   A(19,20,21)           125.2634         estimate D2E/DX2                !
 ! A61   A(8,21,12)            116.074          estimate D2E/DX2                !
 ! A62   A(8,21,20)            127.8787         estimate D2E/DX2                !
 ! A63   A(12,21,20)           116.0472         estimate D2E/DX2                !
 ! A64   A(9,22,23)            121.7686         estimate D2E/DX2                !
 ! A65   A(9,22,40)            119.4147         estimate D2E/DX2                !
 ! A66   A(23,22,40)           118.7991         estimate D2E/DX2                !
 ! A67   A(6,23,22)            118.5483         estimate D2E/DX2                !
 ! A68   A(6,23,24)            119.5902         estimate D2E/DX2                !
 ! A69   A(22,23,24)           121.8429         estimate D2E/DX2                !
 ! A70   A(23,24,25)           121.3495         estimate D2E/DX2                !
 ! A71   A(23,24,41)           119.3477         estimate D2E/DX2                !
 ! A72   A(25,24,41)           119.3019         estimate D2E/DX2                !
 ! A73   A(4,25,24)            119.1668         estimate D2E/DX2                !
 ! A74   A(4,25,26)            119.2984         estimate D2E/DX2                !
 ! A75   A(24,25,26)           121.5345         estimate D2E/DX2                !
 ! A76   A(1,26,25)            120.7556         estimate D2E/DX2                !
 ! A77   A(1,26,42)            118.875          estimate D2E/DX2                !
 ! A78   A(25,26,42)           120.3694         estimate D2E/DX2                !
 ! D1    D(26,1,2,3)            -0.0284         estimate D2E/DX2                !
 ! D2    D(26,1,2,28)          179.9662         estimate D2E/DX2                !
 ! D3    D(27,1,2,3)          -179.9885         estimate D2E/DX2                !
 ! D4    D(27,1,2,28)            0.0061         estimate D2E/DX2                !
 ! D5    D(2,1,26,25)            0.0415         estimate D2E/DX2                !
 ! D6    D(2,1,26,42)         -179.9454         estimate D2E/DX2                !
 ! D7    D(27,1,26,25)        -179.9984         estimate D2E/DX2                !
 ! D8    D(27,1,26,42)           0.0148         estimate D2E/DX2                !
 ! D9    D(1,2,3,4)             -0.0022         estimate D2E/DX2                !
 ! D10   D(1,2,3,29)           179.9848         estimate D2E/DX2                !
 ! D11   D(28,2,3,4)          -179.9969         estimate D2E/DX2                !
 ! D12   D(28,2,3,29)           -0.0099         estimate D2E/DX2                !
 ! D13   D(2,3,4,5)           -179.9447         estimate D2E/DX2                !
 ! D14   D(2,3,4,25)             0.0199         estimate D2E/DX2                !
 ! D15   D(29,3,4,5)             0.0684         estimate D2E/DX2                !
 ! D16   D(29,3,4,25)         -179.9669         estimate D2E/DX2                !
 ! D17   D(3,4,5,6)            179.6996         estimate D2E/DX2                !
 ! D18   D(3,4,5,30)             0.0503         estimate D2E/DX2                !
 ! D19   D(25,4,5,6)            -0.2651         estimate D2E/DX2                !
 ! D20   D(25,4,5,30)         -179.9144         estimate D2E/DX2                !
 ! D21   D(3,4,25,24)          179.7951         estimate D2E/DX2                !
 ! D22   D(3,4,25,26)           -0.0071         estimate D2E/DX2                !
 ! D23   D(5,4,25,24)           -0.2394         estimate D2E/DX2                !
 ! D24   D(5,4,25,26)          179.9584         estimate D2E/DX2                !
 ! D25   D(4,5,6,7)           -179.5488         estimate D2E/DX2                !
 ! D26   D(4,5,6,23)             0.7828         estimate D2E/DX2                !
 ! D27   D(30,5,6,7)             0.1003         estimate D2E/DX2                !
 ! D28   D(30,5,6,23)         -179.5681         estimate D2E/DX2                !
 ! D29   D(5,6,7,8)            178.3608         estimate D2E/DX2                !
 ! D30   D(5,6,7,31)            -5.6453         estimate D2E/DX2                !
 ! D31   D(23,6,7,8)            -1.9703         estimate D2E/DX2                !
 ! D32   D(23,6,7,31)          174.0236         estimate D2E/DX2                !
 ! D33   D(5,6,23,22)          177.6767         estimate D2E/DX2                !
 ! D34   D(5,6,23,24)           -0.7861         estimate D2E/DX2                !
 ! D35   D(7,6,23,22)           -2.0011         estimate D2E/DX2                !
 ! D36   D(7,6,23,24)          179.5361         estimate D2E/DX2                !
 ! D37   D(6,7,8,9)              6.2671         estimate D2E/DX2                !
 ! D38   D(6,7,8,21)          -177.0048         estimate D2E/DX2                !
 ! D39   D(31,7,8,9)          -169.6141         estimate D2E/DX2                !
 ! D40   D(31,7,8,21)            7.114          estimate D2E/DX2                !
 ! D41   D(7,8,9,10)           171.2676         estimate D2E/DX2                !
 ! D42   D(7,8,9,22)            -6.8621         estimate D2E/DX2                !
 ! D43   D(21,8,9,10)           -5.644          estimate D2E/DX2                !
 ! D44   D(21,8,9,22)          176.2263         estimate D2E/DX2                !
 ! D45   D(7,8,21,12)         -165.124          estimate D2E/DX2                !
 ! D46   D(7,8,21,20)           14.9201         estimate D2E/DX2                !
 ! D47   D(9,8,21,12)           11.441          estimate D2E/DX2                !
 ! D48   D(9,8,21,20)         -168.5148         estimate D2E/DX2                !
 ! D49   D(8,9,10,11)           -2.6957         estimate D2E/DX2                !
 ! D50   D(8,9,10,32)         -179.1343         estimate D2E/DX2                !
 ! D51   D(22,9,10,11)         175.4919         estimate D2E/DX2                !
 ! D52   D(22,9,10,32)          -0.9467         estimate D2E/DX2                !
 ! D53   D(8,9,22,23)            3.4254         estimate D2E/DX2                !
 ! D54   D(8,9,22,40)         -178.1177         estimate D2E/DX2                !
 ! D55   D(10,9,22,23)        -174.7338         estimate D2E/DX2                !
 ! D56   D(10,9,22,40)           3.7231         estimate D2E/DX2                !
 ! D57   D(9,10,11,12)           4.8664         estimate D2E/DX2                !
 ! D58   D(9,10,11,33)        -175.9227         estimate D2E/DX2                !
 ! D59   D(32,10,11,12)       -178.6122         estimate D2E/DX2                !
 ! D60   D(32,10,11,33)          0.5987         estimate D2E/DX2                !
 ! D61   D(10,11,12,13)       -178.4386         estimate D2E/DX2                !
 ! D62   D(10,11,12,21)          1.5934         estimate D2E/DX2                !
 ! D63   D(33,11,12,13)          2.3703         estimate D2E/DX2                !
 ! D64   D(33,11,12,21)       -177.5977         estimate D2E/DX2                !
 ! D65   D(11,12,13,14)       -178.2779         estimate D2E/DX2                !
 ! D66   D(11,12,13,34)          2.4425         estimate D2E/DX2                !
 ! D67   D(21,12,13,14)          1.6902         estimate D2E/DX2                !
 ! D68   D(21,12,13,34)       -177.5895         estimate D2E/DX2                !
 ! D69   D(11,12,21,8)          -9.4772         estimate D2E/DX2                !
 ! D70   D(11,12,21,20)        170.484          estimate D2E/DX2                !
 ! D71   D(13,12,21,8)         170.556          estimate D2E/DX2                !
 ! D72   D(13,12,21,20)         -9.4828         estimate D2E/DX2                !
 ! D73   D(12,13,14,15)          4.7999         estimate D2E/DX2                !
 ! D74   D(12,13,14,35)       -178.7001         estimate D2E/DX2                !
 ! D75   D(34,13,14,15)       -175.9027         estimate D2E/DX2                !
 ! D76   D(34,13,14,35)          0.5973         estimate D2E/DX2                !
 ! D77   D(13,14,15,16)        175.3766         estimate D2E/DX2                !
 ! D78   D(13,14,15,20)         -2.7537         estimate D2E/DX2                !
 ! D79   D(35,14,15,16)         -1.0436         estimate D2E/DX2                !
 ! D80   D(35,14,15,20)       -179.1739         estimate D2E/DX2                !
 ! D81   D(14,15,16,17)       -174.9036         estimate D2E/DX2                !
 ! D82   D(14,15,16,36)          3.5955         estimate D2E/DX2                !
 ! D83   D(20,15,16,17)          3.1981         estimate D2E/DX2                !
 ! D84   D(20,15,16,36)       -178.3028         estimate D2E/DX2                !
 ! D85   D(14,15,20,19)        171.3378         estimate D2E/DX2                !
 ! D86   D(14,15,20,21)         -5.4884         estimate D2E/DX2                !
 ! D87   D(16,15,20,19)         -6.732          estimate D2E/DX2                !
 ! D88   D(16,15,20,21)        176.4417         estimate D2E/DX2                !
 ! D89   D(15,16,17,18)          1.6438         estimate D2E/DX2                !
 ! D90   D(15,16,17,37)        179.2049         estimate D2E/DX2                !
 ! D91   D(36,16,17,18)       -176.8856         estimate D2E/DX2                !
 ! D92   D(36,16,17,37)          0.6755         estimate D2E/DX2                !
 ! D93   D(16,17,18,19)         -2.4152         estimate D2E/DX2                !
 ! D94   D(16,17,18,38)        176.4042         estimate D2E/DX2                !
 ! D95   D(37,17,18,19)       -179.9731         estimate D2E/DX2                !
 ! D96   D(37,17,18,38)         -1.1537         estimate D2E/DX2                !
 ! D97   D(17,18,19,20)         -1.631          estimate D2E/DX2                !
 ! D98   D(17,18,19,39)        174.2706         estimate D2E/DX2                !
 ! D99   D(38,18,19,20)        179.546          estimate D2E/DX2                !
 ! D100  D(38,18,19,39)         -4.5525         estimate D2E/DX2                !
 ! D101  D(18,19,20,15)          6.0471         estimate D2E/DX2                !
 ! D102  D(18,19,20,21)       -177.3194         estimate D2E/DX2                !
 ! D103  D(39,19,20,15)       -169.6664         estimate D2E/DX2                !
 ! D104  D(39,19,20,21)          6.967          estimate D2E/DX2                !
 ! D105  D(15,20,21,8)        -168.7333         estimate D2E/DX2                !
 ! D106  D(15,20,21,12)         11.3108         estimate D2E/DX2                !
 ! D107  D(19,20,21,8)          14.7998         estimate D2E/DX2                !
 ! D108  D(19,20,21,12)       -165.1561         estimate D2E/DX2                !
 ! D109  D(9,22,23,6)            1.2905         estimate D2E/DX2                !
 ! D110  D(9,22,23,24)         179.717          estimate D2E/DX2                !
 ! D111  D(40,22,23,6)        -177.1756         estimate D2E/DX2                !
 ! D112  D(40,22,23,24)          1.2509         estimate D2E/DX2                !
 ! D113  D(6,23,24,25)           0.2936         estimate D2E/DX2                !
 ! D114  D(6,23,24,41)         179.9302         estimate D2E/DX2                !
 ! D115  D(22,23,24,25)       -178.1169         estimate D2E/DX2                !
 ! D116  D(22,23,24,41)          1.5197         estimate D2E/DX2                !
 ! D117  D(23,24,25,4)           0.2259         estimate D2E/DX2                !
 ! D118  D(23,24,25,26)       -179.9765         estimate D2E/DX2                !
 ! D119  D(41,24,25,4)        -179.4109         estimate D2E/DX2                !
 ! D120  D(41,24,25,26)          0.3867         estimate D2E/DX2                !
 ! D121  D(4,25,26,1)           -0.0235         estimate D2E/DX2                !
 ! D122  D(4,25,26,42)         179.9632         estimate D2E/DX2                !
 ! D123  D(24,25,26,1)        -179.8208         estimate D2E/DX2                !
 ! D124  D(24,25,26,42)          0.1659         estimate D2E/DX2                !
 --------------------------------------------------------------------------------
 Trust Radius=3.00D-01 FncErr=1.00D-07 GrdErr=1.00D-06 EigMax=2.50D+02 EigMin=1.00D-04
 Number of steps in this run=    252 maximum allowed number of steps=    252.
 GradGradGradGradGradGradGradGradGradGradGradGradGradGradGradGradGradGrad

                          Input orientation:                          
 ---------------------------------------------------------------------
 Center     Atomic      Atomic             Coordinates (Angstroms)
 Number     Number       Type             X           Y           Z
 ---------------------------------------------------------------------
      1          6           0        6.545800    0.501600   -0.487800
      2          6           0        6.074900    1.773500   -0.177000
      3          6           0        4.710100    1.980000    0.029600
      4          6           0        3.798800    0.915800   -0.072300
      5          6           0        2.421800    1.105800    0.131300
      6          6           0        1.508900    0.041400    0.023100
      7          6           0        0.124400    0.227000    0.217000
      8          6           0       -0.843300   -0.804700    0.087000
      9          6           0       -0.303500   -2.100100   -0.123000
     10          6           0       -1.133900   -3.214900   -0.084300
     11          6           0       -2.480800   -3.076200    0.213900
     12          6           0       -3.055800   -1.815100    0.382200
     13          6           0       -4.411600   -1.769700    0.713800
     14          6           0       -5.072200   -0.560100    0.865100
     15          6           0       -4.418800    0.636100    0.591400
     16          6           0       -5.155800    1.831700    0.663200
     17          6           0       -4.590200    3.047700    0.300200
     18          6           0       -3.290300    3.070400   -0.170900
     19          6           0       -2.549000    1.883900   -0.227600
     20          6           0       -3.048900    0.628700    0.210200
     21          6           0       -2.291800   -0.626300    0.221700
     22          6           0        1.073000   -2.298000   -0.334500
     23          6           0        1.986600   -1.239600   -0.278600
     24          6           0        3.363700   -1.436600   -0.484000
     25          6           0        4.276300   -0.373600   -0.387000
     26          6           0        5.652700   -0.565900   -0.591900
     27          1           0        7.608200    0.338500   -0.648900
     28          1           0        6.768700    2.606100   -0.094900
     29          1           0        4.361300    2.981400    0.271900
     30          1           0        2.052900    2.101100    0.372800
     31          1           0       -0.188800    1.212700    0.546700
     32          1           0       -0.733400   -4.215900   -0.229400
     33          1           0       -3.083900   -3.978400    0.301000
     34          1           0       -4.976200   -2.686900    0.872100
     35          1           0       -6.123400   -0.571300    1.144900
     36          1           0       -6.196000    1.820100    0.983600
     37          1           0       -5.175100    3.961600    0.348400
     38          1           0       -2.849200    4.002200   -0.514900
     39          1           0       -1.573000    1.957400   -0.696300
     40          1           0        1.446100   -3.303800   -0.522800
     41          1           0        3.730900   -2.434300   -0.717200
     42          1           0        6.039900   -1.552900   -0.834800
 ---------------------------------------------------------------------
                    Distance matrix (angstroms):
                    1          2          3          4          5
     1  C    0.000000
     2  C    1.391428   0.000000
     3  C    2.413123   1.395709   0.000000
     4  C    2.808952   2.434593   1.404768   0.000000
     5  C    4.213753   3.726394   2.451711   1.404878   0.000000
     6  C    5.083617   4.887593   3.742445   2.453022   1.406428
     7  C    6.465797   6.160791   4.912919   3.749581   2.461236
     8  C    7.525664   7.387713   6.212737   4.953240   3.783233
     9  C    7.335859   7.462686   6.465809   5.091865   4.215415
    10  C    8.541251   8.766956   7.819993   6.433845   5.599816
    11  C    9.735119   9.842378   8.792506   7.446566   6.444489
    12  C    9.915378   9.826517   8.650798   7.392559   6.212786
    13  C   11.254655  11.104705   9.886040   8.674130   7.436610
    14  C   11.744593  11.436324  10.141181   9.041661   7.711921
    15  C   11.018404  10.583093   9.244377   8.249102   6.872126
    16  C   11.833064  11.262235   9.887337   9.031317   7.630850
    17  C   11.450505  10.751542   9.365297   8.663664   7.277888
    18  C   10.170940   9.454573   8.076854   7.409950   6.048063
    19  C    9.202926   8.624755   7.264291   6.423076   5.044116
    20  C    9.620895   9.203489   7.877862   6.859536   5.492031
    21  C    8.937490   8.713189   7.473708   6.289667   5.022586
    22  C    6.149211   6.451428   5.626931   4.222232   3.690811
    23  C    4.884859   5.079694   4.228270   2.823540   2.420396
    24  C    3.725908   4.213027   3.708063   2.427467   2.780210
    25  C    2.434495   2.808754   2.429233   1.410530   2.428256
    26  C    1.395715   2.413128   2.785025   2.429478   3.708951
    27  H    1.086853   2.152423   3.399098   3.895802   5.300585
    28  H    2.152435   1.086886   2.155304   3.417299   4.604086
    29  H    3.390957   2.144052   1.087737   2.168313   2.701722
    30  H    4.846151   4.072602   2.682007   2.156668   1.088592
    31  H    6.850598   6.330259   4.985515   4.046265   2.645603
    32  H    8.678037   9.067999   8.251542   6.848347   6.197248
    33  H   10.650058  10.825731   9.814409   8.453645   7.496040
    34  H   12.032138  11.963385  10.784905   9.532679   8.346482
    35  H   12.818949  12.491758  11.185604  10.106587   8.767012
    36  H   12.894066  12.325752  10.948913  10.091021   8.689253
    37  H   12.249503  11.472852  10.086900   9.486030   8.118843
    38  H   10.026014   9.204392   7.844029   7.342865   6.048979
    39  H    8.250924   7.667716   6.324934   5.507317   4.167562
    40  H    6.363115   6.879269   6.235173   4.852131   4.563377
    41  H    4.073794   4.846827   4.582858   3.412283   3.868592
    42  H    2.144135   3.390997   3.872588   3.420295   4.592677
                    6          7          8          9         10
     6  C    0.000000
     7  C    1.410278   0.000000
     8  C    2.500563   1.420475   0.000000
     9  C    2.809299   2.390417   1.418994   0.000000
    10  C    4.195166   3.677061   2.433692   1.390626   0.000000
    11  C    5.066906   4.206924   2.803074   2.409753   1.386471
    12  C    4.940853   3.783006   2.450144   2.812758   2.422966
    13  C    6.229725   4.980855   3.749249   4.205459   3.669998
    14  C    6.661955   5.295679   4.306839   5.107685   4.843504
    15  C    5.984502   4.576921   3.887740   4.993281   5.106598
    16  C    6.930594   5.536666   5.087265   6.294599   6.496353
    17  C    6.805413   5.494609   5.378262   6.712283   7.163380
    18  C    5.678450   4.460445   4.590286   5.971377   6.645491
    19  C    4.463654   3.176485   3.199524   4.574436   5.293468
    20  C    4.599290   3.198631   2.633341   3.885176   4.304325
    21  C    3.864012   2.562453   1.465648   2.498848   2.852230
    22  C    2.406383   2.753111   2.465728   1.406645   2.402855
    23  C    1.400065   2.421637   2.886371   2.451373   3.698254
    24  C    2.425266   3.708373   4.292341   3.744183   4.852887
    25  C    2.828234   4.238374   5.159538   4.901537   6.118405
    26  C    4.232980   5.643147   6.535744   6.168465   7.302931
    27  H    6.143396   7.534552   8.560158   8.295682   9.453557
    28  H    5.852957   7.064285   8.343212   8.495006   9.815052
    29  H    4.103862   5.053816   6.438680   6.909265   8.289646
    30  H    2.158840   2.693629   4.112582   4.842367   6.214860
    31  H    2.127977   1.085542   2.170161   3.381760   4.571107
    32  H    4.818326   4.546917   3.427604   2.161653   1.087867
    33  H    6.109814   5.290145   3.890817   3.382072   2.129293
    34  H    7.086674   5.910676   4.608679   4.813386   3.994591
    35  H    7.738594   6.366576   5.390091   6.149474   5.778812
    36  H    7.965665   6.563010   6.028670   7.163385   7.219175
    37  H    7.755620   6.484536   6.445963   7.790951   8.247465
    38  H    5.913579   4.861081   5.243301   6.623612   7.430626
    39  H    3.699554   2.590283   2.962299   4.289943   5.226858
    40  H    3.390032   3.841971   3.443648   2.160980   2.618508
    41  H    3.407993   4.578437   4.921955   4.091595   4.967512
    42  H    4.879318   6.266376   6.984838   6.406622   7.401952
                   11         12         13         14         15
    11  C    0.000000
    12  C    1.396182   0.000000
    13  C    2.384288   1.396500   0.000000
    14  C    3.670174   2.423651   1.386512   0.000000
    15  C    4.204702   2.812457   2.408922   1.390229   0.000000
    16  C    5.607582   4.217595   3.677836   2.401762   1.406337
    17  C    6.477590   5.099797   4.838420   3.683430   2.435157
    18  C    6.211606   4.922298   5.046442   4.174805   2.789342
    19  C    4.980177   3.783028   4.207648   3.678813   2.392471
    20  C    3.748204   2.449855   2.804084   2.436367   1.421968
    21  C    2.457192   1.422217   2.458267   2.854640   2.500892
    22  C    3.679108   4.218275   5.608821   6.497909   6.294927
    23  C    4.855236   5.117974   6.496370   7.183065   6.730847
    24  C    6.110117   6.488724   7.874070   8.587941   8.125262
    25  C    7.302296   7.511943   8.867946   9.433822   8.808038
    26  C    8.550131   8.851403  10.219791  10.823417  10.211764
    27  H   10.686090  10.928040  12.279131  12.802040  12.094447
    28  H   10.859887  10.784036  12.033317  12.294443  11.380337
    29  H    9.138502   8.833570   9.986591  10.093812   9.093551
    30  H    6.883612   6.437043   7.542489   7.621771   6.639044
    31  H    4.874288   4.173047   5.172492   5.204978   4.269352
    32  H    2.132800   3.395797   4.516932   5.778234   6.147991
    33  H    1.088706   2.165006   2.609894   3.994536   4.812473
    34  H    2.609943   2.165173   1.088617   2.128977   3.381097
    35  H    4.517723   3.396899   2.133605   1.087858   2.160981
    36  H    6.194264   4.841200   4.017902   2.634828   2.171202
    37  H    7.537106   6.153279   5.793466   4.552289   3.419063
    38  H    7.125350   5.889690   6.104558   5.259345   3.875329
    39  H    5.195161   4.194474   4.892577   4.584777   3.391546
    40  H    4.001884   4.827251   6.180234   7.207107   7.152713
    41  H    6.313810   6.902998   8.293959   9.138428   8.806668
    42  H    8.719091   9.180501  10.567829  11.285126  10.780082
                   16         17         18         19         20
    16  C    0.000000
    17  C    1.389363   0.000000
    18  C    2.389601   1.382820   0.000000
    19  C    2.755296   2.408215   1.400187   0.000000
    20  C    2.468085   2.869715   2.483024   1.420245   0.000000
    21  C    3.799892   4.334407   3.849250   2.563031   1.465728
    22  C    7.539746   7.813526   6.919889   5.533408   5.084519
    23  C    7.831587   7.872118   6.814204   5.507315   5.393119
    24  C    9.196724   9.164521   8.042810   6.786124   6.772652
    25  C    9.743243   9.528502   8.316326   7.190719   7.417534
    26  C   11.142147  10.898208   9.663186   8.567504   8.819766
    27  H   12.917854  12.531621  11.245847  10.282727  10.695609
    28  H   11.973642  11.374345  10.069997   9.346588  10.019404
    29  H    9.594275   8.951790   7.664918   7.014717   7.774964
    30  H    7.219575   6.710596   5.457558   4.645981   5.312510
    31  H    5.006778   4.774967   3.685824   2.573051   2.938445
    32  H    7.545053   8.241072   7.722132   6.364273   5.387480
    33  H    6.179095   7.185751   7.067593   5.910338   4.608128
    34  H    4.526990   5.775959   6.089057   5.290827   3.891761
    35  H    2.634899   4.020122   4.797892   4.548417   3.430192
    36  H    1.088488   2.133690   3.367375   3.843395   3.452799
    37  H    2.153125   1.086114   2.148576   3.397796   3.955761
    38  H    3.379259   2.146285   1.086810   2.158670   3.456321
    39  H    3.834123   3.359354   2.112802   1.085199   2.182995
    40  H    8.447783   8.800898   7.949072   6.554403   6.017214
    41  H    9.953778  10.016393   8.938535   7.636996   7.497181
    42  H   11.791659  11.638418  10.433997   9.270895   9.405195
                   21         22         23         24         25
    21  C    0.000000
    22  C    3.798134   0.000000
    23  C    4.350993   1.399286   0.000000
    24  C    5.756673   2.451870   1.406201   0.000000
    25  C    6.601084   3.737272   2.450394   1.404356   0.000000
    26  C    7.986280   4.903068   3.740631   2.451384   1.404792
    27  H    9.984928   7.053993   5.850633   4.603689   3.417197
    28  H    9.625035   7.519881   6.139351   5.299891   3.895638
    29  H    7.568471   6.249216   4.874330   4.591875   3.420146
    30  H    5.132052   4.562078   3.404261   3.868801   3.412469
    31  H    2.812500   3.833232   3.380423   4.549878   4.829623
    32  H    3.939204   2.636753   4.032268   4.957374   6.315473
    33  H    3.445328   4.528512   5.791971   6.974849   8.224383
    34  H    3.446026   6.180611   7.204122   8.541440   9.620054
    35  H    3.941634   7.547072   8.261058   9.664736  10.513780
    36  H    4.669919   8.457807   8.826656  10.205283  10.787026
    37  H    5.420175   8.870609   8.873306  10.136299  10.424190
    38  H    4.719776   7.423525   7.135634   8.257217   8.362819
    39  H    2.834590   5.024007   4.802711   5.994607   6.304248
    40  H    4.657809   1.089171   2.147719   2.676776   4.076094
    41  H    6.357933   2.688767   2.159227   1.088404   2.157076
    42  H    8.449379   5.047333   4.103262   2.701598   2.168308
                   26         27         28         29         30
    26  C    0.000000
    27  H    2.155265   0.000000
    28  H    3.399125   2.480662   0.000000
    29  H    3.872622   4.286625   2.463933   0.000000
    30  H    4.582804   5.917093   4.765767   2.472614   0.000000
    31  H    6.211518   7.936428   7.124607   4.889501   2.417584
    32  H    7.364522   9.513192  10.140970   8.832236   6.930411
    33  H    9.421815  11.569742  11.856901  10.191696   7.959409
    34  H   10.936885  13.032022  12.918731  10.939779   8.519536
    35  H   11.903488  13.878123  13.335637  11.104627   8.636535
    36  H   12.188802  13.979132  13.033204  10.644798   8.276255
    37  H   11.773855  13.324197  12.028643   9.586948   7.463648
    38  H    9.651724  11.081420   9.727769   7.324780   5.332239
    39  H    7.654324   9.322956   8.388471   6.099336   3.782959
    40  H    5.019597   7.159171   7.964929   6.973785   5.512100
    41  H    2.683269   4.767236   5.917864   5.541257   4.957180
    42  H    1.087701   2.464045   4.286710   4.960077   5.541316
                   31         32         33         34         35
    31  H    0.000000
    32  H    5.510773   0.000000
    33  H    5.948907   2.421277   0.000000
    34  H    6.183200   4.642466   2.361128   0.000000
    35  H    6.225751   6.650106   4.643173   2.422034   0.000000
    36  H    6.053616   8.230715   6.616170   4.670481   2.397933
    37  H    5.697277   9.323844   8.210905   6.672059   4.699028
    38  H    3.998254   8.490894   8.025631   7.154855   5.864488
    39  H    2.003905   6.247604   6.205735   5.967510   5.521819
    40  H    4.920925   2.380805   4.653454   6.600928   8.218583
    41  H    5.501100   4.831358   7.061337   8.854562  10.200265
    42  H    6.953689   7.303127   9.508776  11.205085  12.362387
                   36         37         38         39         40
    36  H    0.000000
    37  H    2.455960   0.000000
    38  H    4.267099   2.481279   0.000000
    39  H    4.920675   4.252451   2.417188   0.000000
    40  H    9.323373   9.868400   8.475099   6.068385   0.000000
    41  H   10.933251  11.016346   9.206909   6.886133   2.452373
    42  H   12.821894  12.553322  10.487019   8.384368   4.926053
                   41         42
    41  H    0.000000
    42  H    2.474303   0.000000
 Stoichiometry    C26H16
 Framework group  C1[X(C26H16)]
 Deg. of freedom   120
 Full point group                 C1      NOp   1
 Largest Abelian subgroup         C1      NOp   1
 Largest concise Abelian subgroup C1      NOp   1
                         Standard orientation:                         
 ---------------------------------------------------------------------
 Center     Atomic      Atomic             Coordinates (Angstroms)
 Number     Number       Type             X           Y           Z
 ---------------------------------------------------------------------
      1          6           0        6.603258   -0.523292    0.006737
      2          6           0        6.117019   -1.802783   -0.243358
      3          6           0        4.741330   -2.019874   -0.334773
      4          6           0        3.834360   -0.958805   -0.176948
      5          6           0        2.446647   -1.159411   -0.264657
      6          6           0        1.538592   -0.098041   -0.100427
      7          6           0        0.144164   -0.294118   -0.177934
      8          6           0       -0.816523    0.734649    0.013026
      9          6           0       -0.269956    2.036254    0.156672
     10          6           0       -1.108050    3.145909    0.166954
     11          6           0       -2.473784    2.995119   -0.018337
     12          6           0       -3.052271    1.728346   -0.118139
     13          6           0       -4.430202    1.670219   -0.337555
     14          6           0       -5.092961    0.454787   -0.414317
     15          6           0       -4.411654   -0.733117   -0.174648
     16          6           0       -5.144193   -1.933575   -0.166205
     17          6           0       -4.543009   -3.140191    0.169928
     18          6           0       -3.209014   -3.148036    0.534051
     19          6           0       -2.473356   -1.956915    0.510363
     20          6           0       -3.015392   -0.712056    0.093687
     21          6           0       -2.269977    0.546460   -0.000400
     22          6           0        1.117848    2.244892    0.252162
     23          6           0        2.030810    1.190427    0.139894
     24          6           0        3.418723    1.398063    0.229271
     25          6           0        4.327379    0.338285    0.076204
     26          6           0        5.714584    0.541209    0.165218
     27          1           0        7.674141   -0.351943    0.078133
     28          1           0        6.807302   -2.633074   -0.367644
     29          1           0        4.380575   -3.027096   -0.531072
     30          1           0        2.065884   -2.160623   -0.458627
     31          1           0       -0.188313   -1.286966   -0.464490
     32          1           0       -0.703660    4.151322    0.262190
     33          1           0       -3.087871    3.892550   -0.071211
     34          1           0       -5.011799    2.581618   -0.464766
     35          1           0       -6.163468    0.455720   -0.607836
     36          1           0       -6.207037   -1.932885   -0.401086
     37          1           0       -5.123884   -4.057800    0.184794
     38          1           0       -2.735324   -4.071469    0.856611
     39          1           0       -1.462045   -2.017269    0.899291
     40          1           0        1.498407    3.255707    0.392598
     41          1           0        3.797101    2.401523    0.415068
     42          1           0        6.113755    1.534242    0.359234
 ---------------------------------------------------------------------
 Rotational constants (GHZ):           0.4733074           0.1094625           0.0895781
 Standard basis: def2SVPP (5D, 7F)
 There are   422 symmetry adapted cartesian basis functions of A   symmetry.
 There are   396 symmetry adapted basis functions of A   symmetry.
   396 basis functions,   714 primitive gaussians,   422 cartesian basis functions
    86 alpha electrons       86 beta electrons
       nuclear repulsion energy      1973.7952156619 Hartrees.
 NAtoms=   42 NActive=   42 NUniq=   42 SFac= 1.00D+00 NAtFMM=   60 NAOKFM=F Big=F
 Integral buffers will be    131072 words long.
 Raffenetti 2 integral format.
 Two-electron integral symmetry is turned on.
 Nuclear repulsion after empirical dispersion term =     1973.6848395133 Hartrees.
 One-electron integrals computed using PRISM.
   1 Symmetry operations used in ECPInt.
 ECPInt:  NShTT=   17766 NPrTT=   71262 LenC2=   15409 LenP2D=   40803.
 LDataN:  DoStor=T MaxTD1= 4 Len=   56
 NBasis=   396 RedAO= T EigKep=  2.09D-04  NBF=   396
 NBsUse=   396 1.00D-06 EigRej= -1.00D+00 NBFU=   396
 ExpMin= 1.22D-01 ExpMax= 1.24D+03 ExpMxC= 1.86D+02 IAcc=3 IRadAn=         5 AccDes= 0.00D+00
 Harris functional with IExCor=  402 and IRadAn=       5 diagonalized for initial guess.
 HarFok:  IExCor=  402 AccDes= 0.00D+00 IRadAn=         5 IDoV= 1 UseB2=F ITyADJ=14
 ICtDFT=  3500011 ScaDFX=  1.000000  1.000000  1.000000  1.000000
 FoFCou: FMM=F IPFlag=           0 FMFlag=      100000 FMFlg1=           0
         NFxFlg=           0 DoJE=T BraDBF=F KetDBF=T FulRan=T
         wScrn=  0.000000 ICntrl=       500 IOpCl=  0 I1Cent=   200000004 NGrid=           0
         NMat0=    1 NMatS0=      1 NMatT0=    0 NMatD0=    1 NMtDS0=    0 NMtDT0=    0
 Petite list used in FoFCou.
 Requested convergence on RMS density matrix=1.00D-08 within 128 cycles.
 Requested convergence on MAX density matrix=1.00D-06.
 Requested convergence on             energy=1.00D-06.
 No special actions if energy rises.
 Integral accuracy reduced to 1.0D-05 until final iterations.
 Initial convergence to 1.0D-05 achieved.  Increase integral accuracy.
 SCF Done:  E(RB3LYP) =  -999.791003065     A.U. after   16 cycles
            NFock= 16  Conv=0.29D-08     -V/T= 2.0103

 **********************************************************************

            Population analysis using the SCF Density.

 **********************************************************************

 Orbital symmetries:
       Occupied  (A) (A) (A) (A) (A) (A) (A) (A) (A) (A) (A) (A)
                 (A) (A) (A) (A) (A) (A) (A) (A) (A) (A) (A) (A)
                 (A) (A) (A) (A) (A) (A) (A) (A) (A) (A) (A) (A)
                 (A) (A) (A) (A) (A) (A) (A) (A) (A) (A) (A) (A)
                 (A) (A) (A) (A) (A) (A) (A) (A) (A) (A) (A) (A)
                 (A) (A) (A) (A) (A) (A) (A) (A) (A) (A) (A) (A)
                 (A) (A) (A) (A) (A) (A) (A) (A) (A) (A) (A) (A)
                 (A) (A)
       Virtual   (A) (A) (A) (A) (A) (A) (A) (A) (A) (A) (A) (A)
                 (A) (A) (A) (A) (A) (A) (A) (A) (A) (A) (A) (A)
                 (A) (A) (A) (A) (A) (A) (A) (A) (A) (A) (A) (A)
                 (A) (A) (A) (A) (A) (A) (A) (A) (A) (A) (A) (A)
                 (A) (A) (A) (A) (A) (A) (A) (A) (A) (A) (A) (A)
                 (A) (A) (A) (A) (A) (A) (A) (A) (A) (A) (A) (A)
                 (A) (A) (A) (A) (A) (A) (A) (A) (A) (A) (A) (A)
                 (A) (A) (A) (A) (A) (A) (A) (A) (A) (A) (A) (A)
                 (A) (A) (A) (A) (A) (A) (A) (A) (A) (A) (A) (A)
                 (A) (A) (A) (A) (A) (A) (A) (A) (A) (A) (A) (A)
                 (A) (A) (A) (A) (A) (A) (A) (A) (A) (A) (A) (A)
                 (A) (A) (A) (A) (A) (A) (A) (A) (A) (A) (A) (A)
                 (A) (A) (A) (A) (A) (A) (A) (A) (A) (A) (A) (A)
                 (A) (A) (A) (A) (A) (A) (A) (A) (A) (A) (A) (A)
                 (A) (A) (A) (A) (A) (A) (A) (A) (A) (A) (A) (A)
                 (A) (A) (A) (A) (A) (A) (A) (A) (A) (A) (A) (A)
                 (A) (A) (A) (A) (A) (A) (A) (A) (A) (A) (A) (A)
                 (A) (A) (A) (A) (A) (A) (A) (A) (A) (A) (A) (A)
                 (A) (A) (A) (A) (A) (A) (A) (A) (A) (A) (A) (A)
                 (A) (A) (A) (A) (A) (A) (A) (A) (A) (A) (A) (A)
                 (A) (A) (A) (A) (A) (A) (A) (A) (A) (A) (A) (A)
                 (A) (A) (A) (A) (A) (A) (A) (A) (A) (A) (A) (A)
                 (A) (A) (A) (A) (A) (A) (A) (A) (A) (A) (A) (A)
                 (A) (A) (A) (A) (A) (A) (A) (A) (A) (A) (A) (A)
                 (A) (A) (A) (A) (A) (A) (A) (A) (A) (A) (A) (A)
                 (A) (A) (A) (A) (A) (A) (A) (A) (A) (A)
 The electronic state is 1-A.
 Alpha  occ. eigenvalues --  -10.20970 -10.20703 -10.20655 -10.19657 -10.19646
 Alpha  occ. eigenvalues --  -10.19599 -10.19585 -10.19573 -10.19567 -10.19384
 Alpha  occ. eigenvalues --  -10.19132 -10.19115 -10.19051 -10.19039 -10.19026
 Alpha  occ. eigenvalues --  -10.19002 -10.18992 -10.18988 -10.18973 -10.18953
 Alpha  occ. eigenvalues --  -10.18918 -10.18866 -10.18856 -10.18804 -10.18802
 Alpha  occ. eigenvalues --  -10.18753  -0.89164  -0.87985  -0.86050  -0.83879
 Alpha  occ. eigenvalues --   -0.81207  -0.78661  -0.78161  -0.77127  -0.75321
 Alpha  occ. eigenvalues --   -0.74432  -0.72345  -0.71707  -0.68528  -0.66604
 Alpha  occ. eigenvalues --   -0.63173  -0.62703  -0.61283  -0.60569  -0.59890
 Alpha  occ. eigenvalues --   -0.59033  -0.56565  -0.53479  -0.53279  -0.51538
 Alpha  occ. eigenvalues --   -0.51084  -0.50182  -0.48501  -0.47772  -0.46383
 Alpha  occ. eigenvalues --   -0.45480  -0.45217  -0.44601  -0.43880  -0.43109
 Alpha  occ. eigenvalues --   -0.42403  -0.42024  -0.41971  -0.41253  -0.41147
 Alpha  occ. eigenvalues --   -0.40528  -0.40274  -0.39603  -0.38232  -0.37905
 Alpha  occ. eigenvalues --   -0.36956  -0.36343  -0.35636  -0.34828  -0.34351
 Alpha  occ. eigenvalues --   -0.33440  -0.33114  -0.32326  -0.30862  -0.29244
 Alpha  occ. eigenvalues --   -0.29035  -0.26398  -0.25887  -0.22966  -0.21995
 Alpha  occ. eigenvalues --   -0.18151
 Alpha virt. eigenvalues --   -0.09244  -0.04859  -0.04242  -0.01092  -0.00565
 Alpha virt. eigenvalues --    0.02074   0.02841   0.03557   0.06257   0.06527
 Alpha virt. eigenvalues --    0.06663   0.07459   0.07929   0.08232   0.09624
 Alpha virt. eigenvalues --    0.10107   0.11271   0.11710   0.12041   0.12851
 Alpha virt. eigenvalues --    0.13544   0.14819   0.15134   0.15807   0.16222
 Alpha virt. eigenvalues --    0.17573   0.19252   0.19602   0.21264   0.22313
 Alpha virt. eigenvalues --    0.23594   0.24303   0.25219   0.26255   0.26771
 Alpha virt. eigenvalues --    0.27371   0.27698   0.27915   0.28112   0.28570
 Alpha virt. eigenvalues --    0.29757   0.30374   0.30621   0.31375   0.31668
 Alpha virt. eigenvalues --    0.32278   0.32815   0.33286   0.33694   0.35248
 Alpha virt. eigenvalues --    0.35796   0.36300   0.36567   0.37290   0.37517
 Alpha virt. eigenvalues --    0.38110   0.39137   0.39463   0.40196   0.41514
 Alpha virt. eigenvalues --    0.41899   0.42354   0.42991   0.43935   0.44788
 Alpha virt. eigenvalues --    0.44969   0.45262   0.45675   0.46142   0.46450
 Alpha virt. eigenvalues --    0.46610   0.47029   0.47330   0.47853   0.48023
 Alpha virt. eigenvalues --    0.48397   0.48526   0.49267   0.49717   0.50445
 Alpha virt. eigenvalues --    0.50761   0.51328   0.51864   0.52018   0.52330
 Alpha virt. eigenvalues --    0.53294   0.54146   0.54605   0.54937   0.55488
 Alpha virt. eigenvalues --    0.55701   0.57229   0.57949   0.59359   0.59998
 Alpha virt. eigenvalues --    0.60846   0.61140   0.62900   0.63312   0.65030
 Alpha virt. eigenvalues --    0.65603   0.65945   0.66359   0.66614   0.67101
 Alpha virt. eigenvalues --    0.67308   0.68084   0.68345   0.68756   0.68936
 Alpha virt. eigenvalues --    0.69438   0.69752   0.70225   0.70512   0.71043
 Alpha virt. eigenvalues --    0.71458   0.72261   0.72494   0.73070   0.73675
 Alpha virt. eigenvalues --    0.73998   0.74805   0.74824   0.75256   0.76286
 Alpha virt. eigenvalues --    0.76571   0.76770   0.77412   0.78195   0.79031
 Alpha virt. eigenvalues --    0.79282   0.80043   0.80414   0.81194   0.81762
 Alpha virt. eigenvalues --    0.82321   0.82832   0.83616   0.84197   0.84587
 Alpha virt. eigenvalues --    0.87001   0.87309   0.88178   0.88846   0.89802
 Alpha virt. eigenvalues --    0.91498   0.92947   0.94671   0.95528   0.99330
 Alpha virt. eigenvalues --    1.00205   1.07545   1.08936   1.09586   1.11433
 Alpha virt. eigenvalues --    1.12103   1.13255   1.15057   1.15547   1.16870
 Alpha virt. eigenvalues --    1.17272   1.18864   1.19993   1.21710   1.22611
 Alpha virt. eigenvalues --    1.23668   1.23821   1.25390   1.25630   1.26523
 Alpha virt. eigenvalues --    1.27072   1.27665   1.28374   1.29465   1.30650
 Alpha virt. eigenvalues --    1.31605   1.32335   1.35670   1.36427   1.37604
 Alpha virt. eigenvalues --    1.38803   1.40132   1.41191   1.42384   1.42871
 Alpha virt. eigenvalues --    1.44838   1.45635   1.46085   1.46423   1.46845
 Alpha virt. eigenvalues --    1.48152   1.48775   1.49267   1.49328   1.49620
 Alpha virt. eigenvalues --    1.50398   1.50861   1.51351   1.53096   1.54536
 Alpha virt. eigenvalues --    1.56727   1.68435   1.69192   1.69286   1.70868
 Alpha virt. eigenvalues --    1.71493   1.73382   1.74092   1.74570   1.76223
 Alpha virt. eigenvalues --    1.80478   1.81594   1.82159   1.82339   1.83000
 Alpha virt. eigenvalues --    1.83468   1.84038   1.85144   1.85351   1.86248
 Alpha virt. eigenvalues --    1.86397   1.87312   1.88436   1.88930   1.89639
 Alpha virt. eigenvalues --    1.90671   1.92712   1.93663   1.95228   1.97886
 Alpha virt. eigenvalues --    1.98969   2.00258   2.00896   2.02421   2.05621
 Alpha virt. eigenvalues --    2.06422   2.07432   2.07598   2.08297   2.08836
 Alpha virt. eigenvalues --    2.10084   2.11561   2.14621   2.16117   2.17407
 Alpha virt. eigenvalues --    2.18130   2.18976   2.19761   2.20624   2.20787
 Alpha virt. eigenvalues --    2.21590   2.23332   2.24312   2.25502   2.25880
 Alpha virt. eigenvalues --    2.26751   2.27863   2.29285   2.30363   2.30722
 Alpha virt. eigenvalues --    2.31649   2.32668   2.34110   2.34255   2.35205
 Alpha virt. eigenvalues --    2.35471   2.37760   2.40521   2.41561   2.47781
 Alpha virt. eigenvalues --    2.48478   2.51069   2.53712   2.55687   2.56252
 Alpha virt. eigenvalues --    2.57059   2.59410   2.60384   2.61195   2.62033
 Alpha virt. eigenvalues --    2.62268   2.63048   2.63816   2.64757   2.65303
 Alpha virt. eigenvalues --    2.66394   2.66682   2.68301   2.68523   2.70799
 Alpha virt. eigenvalues --    2.71820   2.73090   2.76790   2.80020   2.81017
 Alpha virt. eigenvalues --    2.83915   2.84809   2.89147   2.90505   2.91927
 Alpha virt. eigenvalues --    2.95726   2.98094   3.02809   3.07901   3.24566
 Alpha virt. eigenvalues --    3.33428   3.37292   3.42824   3.50255   3.52747
          Condensed to atoms (all electrons):
               1          2          3          4          5          6
     1  C    5.242631   0.135507   0.146973  -0.156867  -0.002316   0.000313
     2  C    0.135507   5.243164   0.228040   0.143068   0.019818  -0.001319
     3  C    0.146973   0.228040   5.458890   0.200230  -0.160012   0.019065
     4  C   -0.156867   0.143068   0.200230   5.427187   0.228818   0.142275
     5  C   -0.002316   0.019818  -0.160012   0.228818   5.733385   0.217676
     6  C    0.000313  -0.001319   0.019065   0.142275   0.217676   5.380229
     7  C   -0.000005   0.000015  -0.000879   0.020012  -0.156926   0.263830
     8  C    0.000000   0.000000   0.000007  -0.001235   0.018895   0.113149
     9  C   -0.000000   0.000000  -0.000004   0.000223  -0.001540  -0.135836
    10  C   -0.000000   0.000000   0.000000  -0.000003   0.000080  -0.001422
    11  C    0.000000  -0.000000  -0.000000   0.000000  -0.000004   0.000241
    12  C   -0.000000  -0.000000   0.000000   0.000000   0.000006  -0.000336
    13  C   -0.000000   0.000000  -0.000000  -0.000000   0.000000  -0.000001
    14  C    0.000000  -0.000000  -0.000000   0.000000  -0.000000   0.000000
    15  C    0.000000   0.000000   0.000000  -0.000000   0.000000   0.000047
    16  C   -0.000000   0.000000  -0.000000  -0.000000  -0.000000  -0.000001
    17  C    0.000000  -0.000000   0.000000  -0.000000   0.000000   0.000002
    18  C   -0.000000   0.000000  -0.000000   0.000000  -0.000007  -0.000075
    19  C    0.000000  -0.000000   0.000000  -0.000001  -0.000104   0.000868
    20  C   -0.000000   0.000000  -0.000000  -0.000000   0.000011   0.000909
    21  C    0.000000  -0.000000  -0.000000   0.000003  -0.000453   0.013591
    22  C    0.000016  -0.000005   0.000106  -0.001410   0.025215   0.027539
    23  C   -0.001332   0.000305  -0.001514  -0.135182   0.033352  -0.053784
    24  C    0.019777  -0.002257   0.025565   0.027601  -0.145236   0.033090
    25  C    0.143287  -0.157046   0.045675  -0.032431   0.027595  -0.134441
    26  C    0.227920   0.146927  -0.175961   0.045433   0.025803  -0.001655
    27  H    0.436305  -0.084922   0.015125  -0.001432   0.000044  -0.000001
    28  H   -0.084910   0.436341  -0.076735   0.015774  -0.000495   0.000009
    29  H    0.015480  -0.081068   0.437565  -0.079067  -0.021986   0.000775
    30  H   -0.000028   0.000593  -0.018485  -0.082831   0.436458  -0.081141
    31  H   -0.000000   0.000001  -0.000031   0.000593  -0.020065  -0.067999
    32  H    0.000000   0.000000   0.000000  -0.000000   0.000001  -0.000037
    33  H    0.000000  -0.000000   0.000000   0.000000   0.000000  -0.000000
    34  H   -0.000000  -0.000000   0.000000  -0.000000   0.000000  -0.000000
    35  H   -0.000000   0.000000  -0.000000  -0.000000   0.000000   0.000000
    36  H   -0.000000   0.000000  -0.000000   0.000000   0.000000  -0.000000
    37  H    0.000000  -0.000000  -0.000000   0.000000   0.000000  -0.000000
    38  H   -0.000000   0.000000  -0.000000  -0.000000  -0.000000  -0.000004
    39  H    0.000000  -0.000000   0.000000  -0.000007   0.000126   0.002566
    40  H    0.000000  -0.000000   0.000000   0.000011  -0.000458   0.019494
    41  H    0.000598  -0.000029  -0.000306   0.018009  -0.002350   0.018627
    42  H   -0.081190   0.015484  -0.002069   0.017541  -0.000326  -0.000017
               7          8          9         10         11         12
     1  C   -0.000005   0.000000  -0.000000  -0.000000   0.000000  -0.000000
     2  C    0.000015   0.000000   0.000000   0.000000  -0.000000  -0.000000
     3  C   -0.000879   0.000007  -0.000004   0.000000  -0.000000   0.000000
     4  C    0.020012  -0.001235   0.000223  -0.000003   0.000000   0.000000
     5  C   -0.156926   0.018895  -0.001540   0.000080  -0.000004   0.000006
     6  C    0.263830   0.113149  -0.135836  -0.001422   0.000241  -0.000336
     7  C    5.699310   0.274502   0.028961   0.027710  -0.003288   0.017763
     8  C    0.274502   5.442052   0.093525   0.019475  -0.122341   0.006230
     9  C    0.028961   0.093525   5.388022   0.149635   0.148168  -0.148124
    10  C    0.027710   0.019475   0.149635   5.528790   0.175264   0.150856
    11  C   -0.003288  -0.122341   0.148168   0.175264   5.517184   0.155059
    12  C    0.017763   0.006230  -0.148124   0.150856   0.155059   5.410908
    13  C   -0.000102   0.024659  -0.000483   0.022034  -0.155143   0.179512
    14  C   -0.000063  -0.004201   0.000209  -0.001943   0.022367   0.148008
    15  C   -0.000600   0.012980  -0.000233   0.000223  -0.000462  -0.147121
    16  C    0.000018   0.000151   0.000002   0.000001   0.000013  -0.001326
    17  C   -0.000030  -0.000163  -0.000002  -0.000000   0.000000   0.000290
    18  C    0.000260   0.001175   0.000045   0.000000  -0.000000  -0.000473
    19  C   -0.002402  -0.037772  -0.000800  -0.000074  -0.000098   0.017601
    20  C   -0.038873  -0.109958   0.013703  -0.004328   0.024743   0.001004
    21  C   -0.127137   0.276702   0.004895  -0.128598   0.020912   0.201762
    22  C   -0.150217   0.027854   0.245226  -0.157457   0.020512  -0.000985
    23  C    0.022763  -0.124855   0.144608   0.023584  -0.001863   0.000145
    24  C    0.025119  -0.001124   0.020331  -0.001102   0.000018  -0.000005
    25  C   -0.001747   0.000190  -0.001387   0.000017  -0.000000   0.000000
    26  C    0.000105  -0.000003   0.000012   0.000000  -0.000000   0.000000
    27  H    0.000000   0.000000  -0.000000  -0.000000   0.000000  -0.000000
    28  H   -0.000000   0.000000   0.000000   0.000000  -0.000000   0.000000
    29  H   -0.000046   0.000000  -0.000000   0.000000   0.000000   0.000000
    30  H   -0.019985   0.000628   0.000013   0.000000  -0.000000   0.000000
    31  H    0.415457  -0.070341   0.016531  -0.000277  -0.000046  -0.000509
    32  H   -0.000374   0.015156  -0.088562   0.443917  -0.079690   0.016839
    33  H    0.000038  -0.001746   0.017359  -0.079761   0.446583  -0.088952
    34  H    0.000009  -0.000131  -0.000140   0.001758  -0.022338  -0.088024
    35  H    0.000000   0.000049  -0.000002   0.000015  -0.000641   0.016809
    36  H    0.000000   0.000007  -0.000000   0.000000  -0.000001  -0.000112
    37  H    0.000000   0.000000   0.000000   0.000000   0.000000  -0.000001
    38  H    0.000006   0.000019   0.000000  -0.000000  -0.000000   0.000003
    39  H    0.003356   0.001937  -0.000407  -0.000036   0.000048  -0.000518
    40  H   -0.002695   0.016496  -0.085093  -0.021532   0.001479  -0.000108
    41  H   -0.000393   0.000023   0.000641  -0.000046   0.000000  -0.000000
    42  H    0.000001  -0.000000   0.000000   0.000000   0.000000   0.000000
              13         14         15         16         17         18
     1  C   -0.000000   0.000000   0.000000  -0.000000   0.000000  -0.000000
     2  C    0.000000  -0.000000   0.000000   0.000000  -0.000000   0.000000
     3  C   -0.000000  -0.000000   0.000000  -0.000000   0.000000  -0.000000
     4  C   -0.000000   0.000000  -0.000000  -0.000000  -0.000000   0.000000
     5  C    0.000000  -0.000000   0.000000  -0.000000   0.000000  -0.000007
     6  C   -0.000001   0.000000   0.000047  -0.000001   0.000002  -0.000075
     7  C   -0.000102  -0.000063  -0.000600   0.000018  -0.000030   0.000260
     8  C    0.024659  -0.004201   0.012980   0.000151  -0.000163   0.001175
     9  C   -0.000483   0.000209  -0.000233   0.000002  -0.000002   0.000045
    10  C    0.022034  -0.001943   0.000223   0.000001  -0.000000   0.000000
    11  C   -0.155143   0.022367  -0.000462   0.000013   0.000000  -0.000000
    12  C    0.179512   0.148008  -0.147121  -0.001326   0.000290  -0.000473
    13  C    5.504123   0.167777   0.146505   0.020182  -0.001801   0.000388
    14  C    0.167777   5.516412   0.173082  -0.157423   0.022914  -0.002146
    15  C    0.146505   0.173082   5.380100   0.230250   0.142223  -0.158486
    16  C    0.020182  -0.157423   0.230250   5.457631   0.199418   0.144685
    17  C   -0.001801   0.022914   0.142223   0.199418   5.236663   0.165192
    18  C    0.000388  -0.002146  -0.158486   0.144685   0.165192   5.193650
    19  C   -0.003699   0.029600   0.042221  -0.177693   0.140362   0.263950
    20  C   -0.122877   0.014202   0.131547   0.042143  -0.146699   0.117090
    21  C    0.020223  -0.125999   0.000426   0.024329  -0.003504   0.014102
    22  C    0.000028   0.000000   0.000001  -0.000000   0.000000  -0.000001
    23  C   -0.000000  -0.000000  -0.000001   0.000000  -0.000000   0.000002
    24  C   -0.000000   0.000000  -0.000000  -0.000000   0.000000  -0.000000
    25  C    0.000000  -0.000000   0.000000   0.000000  -0.000000   0.000000
    26  C   -0.000000   0.000000  -0.000000   0.000000  -0.000000   0.000000
    27  H    0.000000  -0.000000   0.000000   0.000000  -0.000000   0.000000
    28  H   -0.000000  -0.000000  -0.000000  -0.000000  -0.000000  -0.000000
    29  H   -0.000000   0.000000  -0.000000  -0.000000   0.000000  -0.000000
    30  H    0.000000  -0.000000   0.000000   0.000000  -0.000000   0.000004
    31  H    0.000049  -0.000038  -0.000328   0.000048  -0.000181   0.002912
    32  H   -0.000643   0.000015  -0.000001   0.000000   0.000000  -0.000000
    33  H   -0.022307   0.001730  -0.000134  -0.000001   0.000000  -0.000000
    34  H    0.446440  -0.080885   0.017328  -0.000617   0.000013  -0.000001
    35  H   -0.079240   0.442214  -0.087969  -0.019722   0.001233  -0.000092
    36  H    0.001477  -0.023403  -0.080039   0.442552  -0.082887   0.016329
    37  H    0.000011  -0.000547   0.015934  -0.079340   0.436550  -0.084768
    38  H    0.000000   0.000021  -0.001741   0.015801  -0.086998   0.437206
    39  H   -0.000058  -0.000250   0.016505  -0.001561   0.015199  -0.070109
    40  H   -0.000001   0.000000  -0.000000   0.000000   0.000000  -0.000000
    41  H    0.000000   0.000000  -0.000000  -0.000000  -0.000000   0.000000
    42  H   -0.000000  -0.000000  -0.000000   0.000000  -0.000000   0.000000
              19         20         21         22         23         24
     1  C    0.000000  -0.000000   0.000000   0.000016  -0.001332   0.019777
     2  C   -0.000000   0.000000  -0.000000  -0.000005   0.000305  -0.002257
     3  C    0.000000  -0.000000  -0.000000   0.000106  -0.001514   0.025565
     4  C   -0.000001  -0.000000   0.000003  -0.001410  -0.135182   0.027601
     5  C   -0.000104   0.000011  -0.000453   0.025215   0.033352  -0.145236
     6  C    0.000868   0.000909   0.013591   0.027539  -0.053784   0.033090
     7  C   -0.002402  -0.038873  -0.127137  -0.150217   0.022763   0.025119
     8  C   -0.037772  -0.109958   0.276702   0.027854  -0.124855  -0.001124
     9  C   -0.000800   0.013703   0.004895   0.245226   0.144608   0.020331
    10  C   -0.000074  -0.004328  -0.128598  -0.157457   0.023584  -0.001102
    11  C   -0.000098   0.024743   0.020912   0.020512  -0.001863   0.000018
    12  C    0.017601   0.001004   0.201762  -0.000985   0.000145  -0.000005
    13  C   -0.003699  -0.122877   0.020223   0.000028  -0.000000  -0.000000
    14  C    0.029600   0.014202  -0.125999   0.000000  -0.000000   0.000000
    15  C    0.042221   0.131547   0.000426   0.000001  -0.000001  -0.000000
    16  C   -0.177693   0.042143   0.024329  -0.000000   0.000000  -0.000000
    17  C    0.140362  -0.146699  -0.003504   0.000000  -0.000000   0.000000
    18  C    0.263950   0.117090   0.014102  -0.000001   0.000002  -0.000000
    19  C    5.439913   0.237725  -0.126695   0.000016  -0.000029   0.000001
    20  C    0.237725   5.444863   0.302405   0.000037  -0.000094   0.000001
    21  C   -0.126695   0.302405   5.507623   0.022320  -0.002661   0.000110
    22  C    0.000016   0.000037   0.022320   5.764219   0.181780  -0.167893
    23  C   -0.000029  -0.000094  -0.002661   0.181780   5.446507   0.205841
    24  C    0.000001   0.000001   0.000110  -0.167893   0.205841   5.751576
    25  C   -0.000000  -0.000000  -0.000003   0.020687   0.146577   0.227084
    26  C    0.000000  -0.000000   0.000000  -0.000948   0.018969  -0.159572
    27  H   -0.000000   0.000000   0.000000  -0.000000   0.000009  -0.000494
    28  H    0.000000  -0.000000  -0.000000   0.000000  -0.000001   0.000044
    29  H   -0.000000  -0.000000   0.000000   0.000001  -0.000013  -0.000331
    30  H   -0.000102   0.000003  -0.000038  -0.000392   0.018657  -0.002283
    31  H    0.005135   0.001878  -0.020847  -0.001717   0.018627  -0.000464
    32  H    0.000000   0.000050  -0.001320  -0.020956   0.001530  -0.000071
    33  H    0.000009  -0.000134   0.014950  -0.000648   0.000013  -0.000000
    34  H    0.000036  -0.001784   0.014981  -0.000001   0.000000  -0.000000
    35  H   -0.000300   0.015235  -0.001357   0.000000   0.000000  -0.000000
    36  H   -0.002364   0.016090  -0.000073   0.000000   0.000000  -0.000000
    37  H    0.015211  -0.001238   0.000045   0.000000  -0.000000  -0.000000
    38  H   -0.075029   0.015761  -0.000248  -0.000000   0.000000   0.000000
    39  H    0.420099  -0.066527  -0.021351   0.000038  -0.000129  -0.000000
    40  H    0.000000   0.000009  -0.000075   0.444552  -0.083826  -0.020215
    41  H   -0.000000   0.000000   0.000001  -0.020495  -0.082590   0.439170
    42  H   -0.000000   0.000000   0.000000  -0.000045   0.000798  -0.021986
              25         26         27         28         29         30
     1  C    0.143287   0.227920   0.436305  -0.084910   0.015480  -0.000028
     2  C   -0.157046   0.146927  -0.084922   0.436341  -0.081068   0.000593
     3  C    0.045675  -0.175961   0.015125  -0.076735   0.437565  -0.018485
     4  C   -0.032431   0.045433  -0.001432   0.015774  -0.079067  -0.082831
     5  C    0.027595   0.025803   0.000044  -0.000495  -0.021986   0.436458
     6  C   -0.134441  -0.001655  -0.000001   0.000009   0.000775  -0.081141
     7  C   -0.001747   0.000105   0.000000  -0.000000  -0.000046  -0.019985
     8  C    0.000190  -0.000003   0.000000   0.000000   0.000000   0.000628
     9  C   -0.001387   0.000012  -0.000000   0.000000  -0.000000   0.000013
    10  C    0.000017   0.000000  -0.000000   0.000000   0.000000   0.000000
    11  C   -0.000000  -0.000000   0.000000  -0.000000   0.000000  -0.000000
    12  C    0.000000   0.000000  -0.000000   0.000000   0.000000   0.000000
    13  C    0.000000  -0.000000   0.000000  -0.000000  -0.000000   0.000000
    14  C   -0.000000   0.000000  -0.000000  -0.000000   0.000000  -0.000000
    15  C    0.000000  -0.000000   0.000000  -0.000000  -0.000000   0.000000
    16  C    0.000000   0.000000   0.000000  -0.000000  -0.000000   0.000000
    17  C   -0.000000  -0.000000  -0.000000  -0.000000   0.000000  -0.000000
    18  C    0.000000   0.000000   0.000000  -0.000000  -0.000000   0.000004
    19  C   -0.000000   0.000000  -0.000000   0.000000  -0.000000  -0.000102
    20  C   -0.000000  -0.000000   0.000000  -0.000000  -0.000000   0.000003
    21  C   -0.000003   0.000000   0.000000  -0.000000   0.000000  -0.000038
    22  C    0.020687  -0.000948  -0.000000   0.000000   0.000001  -0.000392
    23  C    0.146577   0.018969   0.000009  -0.000001  -0.000013   0.018657
    24  C    0.227084  -0.159572  -0.000494   0.000044  -0.000331  -0.002283
    25  C    5.428469   0.198288   0.015767  -0.001429   0.017560   0.017824
    26  C    0.198288   5.460854  -0.076741   0.015117  -0.002073  -0.000300
    27  H    0.015767  -0.076741   0.669128  -0.012412  -0.000315  -0.000001
    28  H   -0.001429   0.015117  -0.012412   0.669083  -0.012451  -0.000014
    29  H    0.017560  -0.002073  -0.000315  -0.012451   0.677151   0.007496
    30  H    0.017824  -0.000300  -0.000001  -0.000014   0.007496   0.683919
    31  H    0.000019   0.000001   0.000000  -0.000000  -0.000003   0.008891
    32  H    0.000000   0.000000  -0.000000   0.000000  -0.000000   0.000000
    33  H   -0.000000  -0.000000  -0.000000   0.000000  -0.000000   0.000000
    34  H    0.000000   0.000000  -0.000000   0.000000   0.000000   0.000000
    35  H    0.000000   0.000000   0.000000  -0.000000  -0.000000   0.000000
    36  H    0.000000   0.000000   0.000000  -0.000000   0.000000   0.000000
    37  H    0.000000  -0.000000  -0.000000   0.000000   0.000000   0.000000
    38  H    0.000000   0.000000  -0.000000   0.000000   0.000000   0.000001
    39  H    0.000001  -0.000000  -0.000000  -0.000000   0.000000   0.000151
    40  H    0.000648  -0.000039  -0.000000   0.000000   0.000000   0.000013
    41  H   -0.083861  -0.018556  -0.000014  -0.000001   0.000012   0.000036
    42  H   -0.079101   0.437669  -0.012446  -0.000316   0.000036   0.000012
              31         32         33         34         35         36
     1  C   -0.000000   0.000000   0.000000  -0.000000  -0.000000  -0.000000
     2  C    0.000001   0.000000  -0.000000  -0.000000   0.000000   0.000000
     3  C   -0.000031   0.000000   0.000000   0.000000  -0.000000  -0.000000
     4  C    0.000593  -0.000000   0.000000  -0.000000  -0.000000   0.000000
     5  C   -0.020065   0.000001   0.000000   0.000000   0.000000   0.000000
     6  C   -0.067999  -0.000037  -0.000000  -0.000000   0.000000  -0.000000
     7  C    0.415457  -0.000374   0.000038   0.000009   0.000000   0.000000
     8  C   -0.070341   0.015156  -0.001746  -0.000131   0.000049   0.000007
     9  C    0.016531  -0.088562   0.017359  -0.000140  -0.000002  -0.000000
    10  C   -0.000277   0.443917  -0.079761   0.001758   0.000015   0.000000
    11  C   -0.000046  -0.079690   0.446583  -0.022338  -0.000641  -0.000001
    12  C   -0.000509   0.016839  -0.088952  -0.088024   0.016809  -0.000112
    13  C    0.000049  -0.000643  -0.022307   0.446440  -0.079240   0.001477
    14  C   -0.000038   0.000015   0.001730  -0.080885   0.442214  -0.023403
    15  C   -0.000328  -0.000001  -0.000134   0.017328  -0.087969  -0.080039
    16  C    0.000048   0.000000  -0.000001  -0.000617  -0.019722   0.442552
    17  C   -0.000181   0.000000   0.000000   0.000013   0.001233  -0.082887
    18  C    0.002912  -0.000000  -0.000000  -0.000001  -0.000092   0.016329
    19  C    0.005135   0.000000   0.000009   0.000036  -0.000300  -0.002364
    20  C    0.001878   0.000050  -0.000134  -0.001784   0.015235   0.016090
    21  C   -0.020847  -0.001320   0.014950   0.014981  -0.001357  -0.000073
    22  C   -0.001717  -0.020956  -0.000648  -0.000001   0.000000   0.000000
    23  C    0.018627   0.001530   0.000013   0.000000   0.000000   0.000000
    24  C   -0.000464  -0.000071  -0.000000  -0.000000  -0.000000  -0.000000
    25  C    0.000019   0.000000  -0.000000   0.000000   0.000000   0.000000
    26  C    0.000001   0.000000  -0.000000   0.000000   0.000000   0.000000
    27  H    0.000000  -0.000000  -0.000000  -0.000000   0.000000   0.000000
    28  H   -0.000000   0.000000   0.000000   0.000000  -0.000000  -0.000000
    29  H   -0.000003  -0.000000  -0.000000   0.000000  -0.000000   0.000000
    30  H    0.008891   0.000000   0.000000   0.000000   0.000000   0.000000
    31  H    0.667537   0.000012  -0.000001   0.000000  -0.000000  -0.000000
    32  H    0.000012   0.680562  -0.013055  -0.000025  -0.000000  -0.000000
    33  H   -0.000001  -0.013055   0.679933   0.005731  -0.000026  -0.000000
    34  H    0.000000  -0.000025   0.005731   0.680289  -0.013090  -0.000019
    35  H   -0.000000  -0.000000  -0.000026  -0.013090   0.680805   0.006249
    36  H   -0.000000  -0.000000  -0.000000  -0.000019   0.006249   0.676570
    37  H   -0.000001   0.000000  -0.000000  -0.000000  -0.000022  -0.012611
    38  H    0.000057  -0.000000   0.000000   0.000000  -0.000001  -0.000358
    39  H   -0.000588   0.000000   0.000000  -0.000000   0.000011   0.000028
    40  H    0.000026   0.006572  -0.000020  -0.000000  -0.000000  -0.000000
    41  H    0.000011   0.000001  -0.000000   0.000000   0.000000  -0.000000
    42  H    0.000000  -0.000000  -0.000000   0.000000  -0.000000  -0.000000
              37         38         39         40         41         42
     1  C    0.000000  -0.000000   0.000000   0.000000   0.000598  -0.081190
     2  C   -0.000000   0.000000  -0.000000  -0.000000  -0.000029   0.015484
     3  C   -0.000000  -0.000000   0.000000   0.000000  -0.000306  -0.002069
     4  C    0.000000  -0.000000  -0.000007   0.000011   0.018009   0.017541
     5  C    0.000000  -0.000000   0.000126  -0.000458  -0.002350  -0.000326
     6  C   -0.000000  -0.000004   0.002566   0.019494   0.018627  -0.000017
     7  C    0.000000   0.000006   0.003356  -0.002695  -0.000393   0.000001
     8  C    0.000000   0.000019   0.001937   0.016496   0.000023  -0.000000
     9  C    0.000000   0.000000  -0.000407  -0.085093   0.000641   0.000000
    10  C    0.000000  -0.000000  -0.000036  -0.021532  -0.000046   0.000000
    11  C    0.000000  -0.000000   0.000048   0.001479   0.000000   0.000000
    12  C   -0.000001   0.000003  -0.000518  -0.000108  -0.000000   0.000000
    13  C    0.000011   0.000000  -0.000058  -0.000001   0.000000  -0.000000
    14  C   -0.000547   0.000021  -0.000250   0.000000   0.000000  -0.000000
    15  C    0.015934  -0.001741   0.016505  -0.000000  -0.000000  -0.000000
    16  C   -0.079340   0.015801  -0.001561   0.000000  -0.000000   0.000000
    17  C    0.436550  -0.086998   0.015199   0.000000  -0.000000  -0.000000
    18  C   -0.084768   0.437206  -0.070109  -0.000000   0.000000   0.000000
[...]
 24834,-0.00031507,0.00058355,-0.00030219,-0.00002911,-0.00017426,0.000
 58282,-0.00072604,-0.00015952,-0.00131000,-0.00040375,0.00416413,0.000
 46643,0.00334713,0.00252676,0.01089919,-0.00076856,0.05753953,0.096954
 51,-0.09078761,0.00008161,0.00106596,0.00371587,0.00240551,-0.00014632
 ,0.00709803,-0.00007307,0.00072939,0.00028235,-0.00012329,-0.00003968,
 0.00000858,0.00004803,0.00008222,0.00002491,-0.00004688,-0.00002593,0.
 00000414,0.00001825,0.00004540,0.00000716,-0.00001500,-0.00001604,-0.0
 0000357,0.00000016,-0.00000072,0.00000035,-0.00000229,-0.00000108,0.00
 000063,-0.00000131,-0.00000560,-0.00000024,-0.00000705,-0.00000728,-0.
 00000363,-0.00005077,0.00008860,0.00009759,-0.00000052,-0.00000224,0.0
 0000926,0.00000715,-0.00000627,-0.00000251,0.00001790,0.00000351,0.000
 04532,0.00000440,-0.00002148,0.00003419,0.00031783,0.00066193,0.000053
 57,-0.00155113,-0.00085759,-0.00215661,-0.06262557,-0.10727451,0.08425
 822,-0.00000394,0.00000459,-0.00000035,0.00000278,0.00000843,0.0000017
 7,0.00000889,-0.00000034,-0.00000427,-0.00001694,-0.00002196,0.0000154
 1,0.00003737,0.00003258,-0.00002465,-0.00033480,0.00040677,0.00021226,
 -0.00292130,0.00087437,-0.00365168,0.00095644,0.00098438,-0.00006214,0
 .00029527,-0.00039107,0.00016229,-0.00001208,-0.00000612,-0.00000594,-
 0.00002586,0.00003130,0.00001076,-0.00023974,-0.00030644,0.00018421,0.
 00019484,-0.00004056,-0.00006518,-0.00034366,0.00042475,0.00019474,0.0
 0207639,-0.00177017,0.00292642,0.00052820,0.00033152,-0.00063451,0.001
 31999,0.00348699,0.00217274,-0.00981415,-0.00123239,0.00759093,-0.2810
 4949,0.00771130,0.12564660,-0.00759590,0.00033069,0.00460929,-0.001528
 18,0.00105914,-0.00171319,-0.00014037,0.00004968,0.00001644,-0.0000644
 8,-0.00002617,0.00018286,-0.00001385,0.00002748,0.00000891,0.00000547,
 0.00000536,-0.00000780,-0.00000437,0.00000063,0.00000147,0.00000270,-0
 .00000027,-0.00000029,0.00000224,0.00000057,0.00000147,-0.00000238,-0.
 00000030,-0.00000004,-0.00001551,-0.00002566,-0.00005100,-0.00271130,0
 .00332459,-0.00239711,0.00000479,0.00000008,-0.00000731,0.00000187,-0.
 00001430,0.00000199,0.00000601,-0.00002644,-0.00000834,-0.00008765,-0.
 00011627,-0.00005599,-0.00021135,-0.00006427,-0.00035609,-0.00049812,-
 0.00012421,0.00027764,0.00004431,-0.00051778,-0.00217651,0.30216490,-0
 .00001574,0.00001764,0.00000782,0.00000425,-0.00003320,-0.00000691,-0.
 00004877,0.00003309,0.00002018,0.00005918,-0.00009518,-0.00001983,-0.0
 0017813,0.00002768,0.00008729,0.00054110,0.00006188,-0.00013928,0.0018
 8783,-0.00035724,0.00116094,-0.00048223,-0.00081139,0.00030088,0.00006
 876,-0.00023013,-0.00020047,0.00000839,-0.00000606,-0.00001965,-0.0000
 1357,0.00013098,0.00006328,-0.00019280,-0.00012512,-0.00008655,0.00002
 674,-0.00002583,-0.00006183,-0.00115767,0.00059552,0.00015791,-0.00075
 148,-0.00428974,0.00261680,-0.00017183,-0.00069406,0.00012591,0.002534
 84,-0.00381734,0.00219464,0.02667492,0.00263233,-0.01212168,0.00842346
 ,-0.05639797,0.00037424,-0.02380579,0.00475344,0.01095579,-0.00017725,
 0.00099045,-0.00065293,-0.00006801,0.00010967,0.00009940,0.00006747,0.
 00014156,-0.00005713,-0.00003754,-0.00004717,-0.00001020,0.00002738,0.
 00005935,0.00001386,-0.00000563,-0.00003825,-0.00001007,-0.00000577,-0
 .00000161,-0.00000007,-0.00000841,-0.00000381,-0.00000255,-0.00000131,
 -0.00001490,-0.00000991,-0.00001327,-0.00003835,-0.00003953,0.00127464
 ,-0.00003458,0.00114626,0.00001298,0.00002800,-0.00000879,0.00001002,0
 .00000925,0.00000967,0.00004000,-0.00002960,0.00001270,-0.00017947,-0.
 00031327,0.00017965,-0.00011051,0.00003585,-0.00029891,0.00114399,-0.0
 0000222,-0.00044303,-0.00094941,0.00075681,-0.00140274,-0.01441163,0.0
 5701092,-0.00002141,-0.00001819,-0.00000303,0.00000512,0.00005764,0.00
 001226,0.00003332,-0.00000433,-0.00000788,-0.00003628,0.00003140,0.000
 00507,0.00003483,0.00015061,0.00004851,-0.00032417,-0.00043555,0.00004
 553,-0.00070441,0.00120555,0.00028504,0.00045254,0.00043105,-0.0001746
 8,-0.00014899,-0.00005583,0.00001722,0.00008915,0.00013111,-0.00003621
 ,-0.00011926,0.00007693,0.00018028,-0.00053060,-0.00065702,0.00014946,
 0.00023478,-0.00007466,-0.00029423,0.00071247,-0.00020207,0.00003082,0
 .00149537,0.00271412,0.00337936,-0.00069039,0.00095860,-0.00052466,0.0
 0154912,0.00115998,0.00670553,0.00027090,0.00122907,0.00435138,0.12594
 790,0.00173673,-0.10182995,0.01018555,-0.00391683,-0.00040560,-0.00114
 446,-0.00001179,-0.00211064,0.00022782,-0.00008299,-0.00002823,-0.0000
 6807,-0.00018365,-0.00014954,0.00005023,-0.00000209,-0.00001596,-0.000
 05141,-0.00006660,-0.00000598,0.00002248,0.00001509,-0.00000084,0.0000
 0886,-0.00000102,0.00000002,0.00000531,0.00000265,0.00000175,-0.000005
 93,0.00000260,0.00000429,-0.00003328,-0.00003918,-0.00000862,-0.002181
 95,0.00094195,-0.00155891,-0.00001675,-0.00001434,-0.00001472,-0.00001
 217,0.00000183,0.00000987,-0.00000557,0.00001605,0.00001566,0.00014120
 ,0.00020768,0.00007111,-0.00025544,-0.00016890,-0.00083200,-0.00004304
 ,0.00009687,0.00013881,-0.00212397,-0.00125738,-0.00362484,-0.13296191
 ,-0.00395640,0.09616583,0.00003934,0.00002916,0.00000331,0.00000605,-0
 .00004768,-0.00001341,-0.00005591,0.00001113,0.00001110,0.00019345,-0.
 00005679,-0.00005761,0.00049602,-0.00078776,-0.00033149,-0.00249559,-0
 .00246066,0.00057995,-0.00043123,-0.00037135,-0.00010629,-0.00459423,-
 0.00172403,0.00129959,-0.00757700,0.02868657,0.00622963,0.00076650,0.0
 0230023,-0.00051744,0.00016213,-0.00040052,-0.00014299,0.00007568,0.00
 019230,-0.00005692,0.00006526,-0.00011696,0.00000279,-0.00002187,0.000
 02835,0.00000471,-0.00003562,0.00009870,-0.00002845,-0.00004578,-0.000
 00206,0.00002100,0.00000031,-0.00001668,0.00000693,0.00001826,0.000009
 57,-0.00000294,0.00002250,-0.00000862,-0.00000721,-0.00040023,-0.00017
 513,0.00011694,0.00006011,0.00151764,0.00010954,-0.08926923,0.08597845
 ,0.02182111,0.00957644,-0.01863990,-0.00398408,0.00118067,-0.00121731,
 -0.00089969,0.00011421,0.00036327,0.00010362,-0.00004697,-0.00001104,0
 .00003567,0.00000503,0.00000655,-0.00000345,0.00000025,0.00000552,0.00
 000194,-0.00000084,0.00002134,0.00000568,-0.00017189,-0.00022137,-0.00
 003027,0.00004330,0.00010377,-0.00011581,-0.00034130,-0.00116132,-0.00
 001085,0.00000619,-0.00000688,0.00003013,-0.00002497,-0.00000578,0.000
 01087,-0.00000288,-0.00000530,-0.00000149,-0.00001074,0.00001212,0.000
 00051,-0.00000394,0.00000419,-0.00000161,-0.00000130,0.00000694,-0.000
 00092,-0.00001228,-0.00001343,-0.00000386,0.09300308,0.00001420,-0.000
 05465,-0.00001693,-0.00008781,-0.00005568,-0.00000142,-0.00004112,0.00
 012051,0.00004242,0.00006786,0.00010518,0.00009518,0.00104650,-0.00074
 572,-0.00044813,-0.00424586,-0.00103065,-0.00022047,-0.00057581,0.0003
 1368,0.00030346,0.00026244,0.00190229,-0.00079523,0.00065219,-0.002016
 86,-0.00111999,-0.00214377,0.00055154,0.00144057,0.00030756,0.00016501
 ,-0.00008658,-0.00009769,0.00018729,0.00007368,0.00000646,-0.00001029,
 0.00000576,0.00002904,0.00003223,-0.00001315,-0.00000811,-0.00002108,0
 .00001679,0.00000939,0.00000277,-0.00000031,-0.00000596,0.00000913,-0.
 00000112,-0.00000806,-0.00001003,0.00000269,-0.00000768,0.00000668,0.0
 0003436,0.00009074,0.00004737,-0.00007684,-0.00031381,-0.00027514,-0.0
 0004775,0.08630243,-0.28881492,-0.05272832,0.01030397,-0.01807591,-0.0
 0516941,0.00208178,0.00087667,0.00030074,-0.00036115,0.00026606,0.0000
 6402,0.00004969,-0.00006388,-0.00005006,-0.00001349,-0.00000146,0.0000
 0333,-0.00001071,0.00000112,0.00000238,0.00002177,0.00001322,-0.000001
 08,-0.00022815,-0.00027073,-0.00011942,0.00004929,-0.00014903,0.000100
 53,0.00035171,0.00048518,-0.00006294,0.00004679,0.00000350,-0.00008890
 ,0.00001104,0.00000807,-0.00000589,0.00000387,-0.00000164,-0.00000229,
 0.00000550,-0.00000152,-0.00000213,0.00000319,-0.00000450,0.00000048,-
 0.00000211,-0.00000273,-0.00000121,0.00000555,0.00000392,-0.00000696,-
 0.09244604,0.30616043,-0.00000671,-0.00022045,-0.00006047,-0.00014202,
 0.00010990,0.00002720,0.00012870,0.00005036,0.00004400,-0.00039134,0.0
 0021897,-0.00008812,0.00036770,0.00009106,0.00012409,-0.00015951,-0.00
 089219,0.00483849,0.00082952,0.00076958,-0.00052883,0.00181401,-0.0020
 9598,0.00593393,-0.00047840,-0.00351403,0.00409961,-0.00131364,-0.0001
 2686,-0.00461489,0.00010057,-0.00006402,-0.00001489,-0.00005670,0.0000
 7479,-0.00008707,0.00006253,-0.00003928,0.00001602,-0.00000346,0.00006
 187,-0.00001332,-0.00000595,-0.00003713,0.00001941,-0.00001747,0.00001
 214,-0.00005379,-0.00001744,-0.00000103,0.00001905,-0.00000317,-0.0000
 2204,-0.00001287,0.00005218,0.00003443,-0.00008177,0.00011487,0.000000
 26,0.00024912,-0.00009506,-0.00033222,0.00009310,0.02346780,-0.0505336
 4,-0.04758660,-0.00057423,-0.00272318,0.00381336,0.00051607,0.00109057
 ,-0.00302819,-0.00038377,-0.00043160,-0.00026555,0.00024932,0.00000627
 ,0.00016955,-0.00000522,0.00000014,-0.00001657,-0.00000155,0.00000260,
 0.00000047,0.00000408,-0.00000870,0.00001542,0.00001725,-0.00007141,0.
 00024121,-0.00001668,0.00026182,-0.00096500,0.00016406,0.00016079,0.00
 018356,0.00012406,-0.00002100,0.00028854,0.00000994,0.00000428,0.00000
 600,0.00000031,-0.00000026,-0.00000231,0.00000329,-0.00000096,0.000002
 66,0.00000141,-0.00000027,0.00000658,-0.00000007,-0.00000229,-0.000002
 32,-0.00004662,0.00002310,0.00002094,-0.02423721,0.05826302,0.03700869
 ,0.00011634,0.00043879,0.00009950,0.00021550,-0.00015107,-0.00009798,0
 .00045903,-0.00078110,-0.00026425,-0.00231742,-0.00249223,0.00047254,-
 0.00059390,-0.00044471,-0.00011213,-0.00487107,-0.00158238,0.00095017,
 0.00006415,0.00153876,0.00046958,0.00015566,0.00010489,-0.00004675,0.0
 0015222,-0.00039874,-0.00011448,-0.00001264,0.00003307,0.00002999,0.00
 000345,0.00003073,-0.00000652,-0.00007374,0.00002545,0.00001829,0.0000
 1925,-0.00000865,-0.00000897,-0.00002024,0.00001014,0.00000810,-0.0000
 0391,-0.00002544,-0.00000064,-0.00000457,0.00001293,0.00000197,-0.0000
 0387,-0.00001259,0.00000682,0.00001038,-0.00001041,-0.00000402,-0.0000
 0310,0.00001311,-0.00003338,0.00000468,-0.00001077,0.00000039,0.000035
 60,-0.00010045,0.00000017,0.00136385,0.00193024,-0.00040215,-0.0066492
 6,0.02797993,0.00855997,-0.09091890,0.08517949,0.02895776,0.00987641,-
 0.01782413,-0.00528319,0.00093428,-0.00139235,-0.00104772,0.00002902,0
 .00001811,0.00003966,-0.00002160,0.00003356,0.00001740,-0.00017571,-0.
 00022445,-0.00000641,0.00000693,0.00010773,-0.00012219,-0.00041611,0.0
 0003790,0.00008926,-0.00001761,-0.00003714,0.00000769,-0.00000214,-0.0
 0000318,-0.00000554,-0.00000596,-0.00000303,0.00000239,-0.00000075,0.0
 0000042,-0.00000020,-0.00000112,-0.00000063,0.00000114,-0.00000250,0.0
 0000201,0.00000046,0.00000098,0.00000024,-0.00000028,-0.00000623,-0.00
 000682,0.00001514,-0.00026861,-0.00109550,-0.00007509,0.09322128,-0.00
 025359,0.00011702,0.00007258,-0.00002030,0.00009965,0.00009232,0.00104
 677,-0.00072426,-0.00036068,-0.00426996,-0.00073145,-0.00118657,-0.000
 45977,0.00036387,0.00030926,0.00019576,0.00175165,-0.00095786,-0.00036
 933,-0.00027221,-0.00006655,0.00002053,0.00025731,0.00011173,0.0004538
 6,0.00009000,0.00002315,-0.00006335,-0.00010621,-0.00006043,0.00008640
 ,-0.00004659,-0.00001702,0.00000898,0.00006261,0.00001275,0.00001631,-
 0.00003221,-0.00000030,0.00001728,0.00002808,-0.00001060,0.00000396,-0
 .00000839,0.00000101,-0.00000514,0.00001015,-0.00000071,-0.00001071,-0
 .00000119,0.00000552,0.00000340,-0.00000706,-0.00000047,-0.00000310,0.
 00000106,0.00001105,0.00000960,0.00001264,-0.00000813,-0.00006602,0.00
 003301,-0.00001553,-0.00157737,0.00045716,0.00126655,0.00005235,-0.000
 79081,-0.00129985,0.08484795,-0.27685996,-0.07227981,0.01012494,-0.017
 75522,-0.00711945,0.00234113,0.00066582,0.00093443,-0.00005330,-0.0000
 1191,-0.00006849,-0.00005564,0.00003991,0.00000660,-0.00023495,-0.0002
 6040,-0.00010503,0.00010286,-0.00019556,0.00021945,0.00005374,0.000017
 92,-0.00007849,-0.00000430,0.00001247,-0.00000030,0.00001518,0.0000033
 0,0.00000223,0.00000423,0.00000465,-0.00000212,0.00000330,-0.00000225,
 -0.00000042,0.00000330,0.00000065,-0.00000143,0.00000208,-0.00000372,0
 .00000012,-0.00000248,-0.00000207,-0.00000131,-0.00000212,0.00000459,-
 0.00000607,0.00052247,0.00032743,-0.00009840,-0.09138283,0.29308246,-0
 .00010700,-0.00010733,-0.00007850,-0.00011034,0.00014883,-0.00018092,0
 .00025417,-0.00009932,0.00006108,-0.00005122,-0.00145141,0.00582440,-0
 .00001033,0.00031606,-0.00044350,0.00141060,-0.00065565,0.00519696,0.0
 0005197,-0.00034253,0.00000782,-0.00011057,-0.00002979,-0.00018071,-0.
 00015915,0.00017759,-0.00011107,0.00010187,-0.00001346,0.00022866,-0.0
 0004177,0.00002158,0.00000764,0.00004587,-0.00003577,-0.00000861,-0.00
 002680,0.00001155,0.00000482,0.00000493,-0.00002391,0.00000169,-0.0000
 1228,0.00003200,-0.00000069,0.00000210,-0.00003891,0.00000437,0.000026
 87,0.00001197,-0.00001748,-0.00001707,0.00001668,0.00000873,0.00003136
 ,-0.00001589,0.00002997,0.00001362,-0.00002211,-0.00000226,-0.00001480
 ,0.00002200,0.00003605,-0.00094959,0.00056693,-0.00328568,0.00096552,-
 0.00496548,0.00286677,0.02942432,-0.07211563,-0.05862991,0.00162745,-0
 .00363564,0.00343436,0.00002451,0.00149829,-0.00386778,0.00001944,-0.0
 0008381,0.00026092,-0.00000457,-0.00000674,0.00004957,-0.00000455,-0.0
 0010293,0.00022581,-0.00011160,0.00023949,-0.00105976,0.00008047,-0.00
 008546,0.00022362,0.00000308,0.00000952,0.00000286,-0.00000683,0.00000
 387,-0.00002876,0.00000180,0.00000214,-0.00000071,0.00000193,-0.000000
 55,0.00000079,0.00000174,-0.00000013,-0.00000019,0.00000117,-0.0000014
 6,-0.00000190,-0.00000018,0.00000077,0.00000289,0.00001285,-0.00000225
 ,-0.00001148,0.00015432,0.00030857,0.00019997,-0.03230839,0.08047130,0
 .04901704,0.01070120,-0.01928771,-0.00588180,-0.00195383,-0.00278971,0
 .00064315,-0.00060623,-0.00052058,-0.00013123,-0.00497131,-0.00152668,
 0.00082149,0.00004451,0.00156473,0.00043153,0.00017735,0.00007879,-0.0
 0002718,-0.00000126,-0.00009093,-0.00001705,-0.00004757,0.00000242,-0.
 00000829,0.00000805,0.00001445,0.00000380,0.00000336,0.00001015,-0.000
 00530,0.00000171,0.00001551,-0.00000212,-0.00002444,0.00000454,0.00000
 417,0.00000694,0.00000242,-0.00000444,-0.00001014,0.00000211,0.0000039
 7,-0.00000383,-0.00000885,0.00000139,0.00000056,0.00000303,0.00000014,
 -0.00000020,-0.00000349,0.00000071,0.00000437,0.00000103,-0.00000163,0
 .00000040,0.00000077,-0.00000208,-0.00000474,-0.00000543,-0.00000237,0
 .00001706,-0.00001204,0.00000943,-0.00002053,0.00004430,0.00002963,0.0
 0017226,-0.00044468,-0.00015745,0.00138538,0.00186772,-0.00006393,-0.0
 0668127,0.02753050,0.00871575,-0.09159605,0.08609791,0.03009451,0.0009
 8030,0.00070683,-0.00067837,0.00033421,-0.00089398,-0.00025667,0.00006
 316,0.00010482,-0.00013823,-0.00043719,0.00005694,0.00010536,0.0000267
 2,-0.00000920,-0.00000264,-0.00000133,-0.00000599,0.00000196,-0.000001
 19,-0.00000186,0.00000078,-0.00000187,-0.00000130,0.00000073,-0.000000
 27,0.00000050,0.,-0.00000042,-0.00000018,0.00000047,-0.00000051,0.0000
 0078,-0.00000003,0.00000076,-0.00000003,0.00000045,0.00000146,0.000000
 53,0.00000125,-0.00002236,-0.00003014,0.00000366,-0.00027801,-0.001102
 13,-0.00021494,0.09273478,0.01106927,-0.01708123,-0.00736416,-0.004447
 96,-0.00089958,-0.00191668,-0.00034073,0.00050014,0.00032549,0.0001712
 5,0.00158326,-0.00073737,-0.00035267,-0.00024123,-0.00006050,-0.000004
 10,0.00018609,0.00009934,-0.00007890,0.00004666,0.00001992,0.00003831,
 0.00006141,0.00000679,0.00008360,-0.00001352,-0.00000482,-0.00001472,-
 0.00004784,0.00000297,0.00003463,-0.00000794,-0.00000604,0.00000578,0.
 00003115,0.00001053,0.00000296,-0.00002362,0.00000193,0.00001200,0.000
 01260,-0.00000524,0.00000348,-0.00000180,0.00000071,-0.00000568,0.0000
 0060,0.00000158,-0.00000138,-0.00000115,0.00000186,0.00000100,-0.00000
 260,0.00000119,0.00000413,-0.00000232,0.00000625,0.00001270,0.00000970
 ,-0.00000334,-0.00003777,0.00001454,-0.00000866,-0.00007115,-0.0001180
 7,-0.00005017,0.00039129,0.00019993,0.00005448,-0.00150837,0.00045548,
 0.00099746,-0.00050070,-0.00071646,-0.00109949,0.08563401,-0.27673816,
 -0.07502699,0.00010502,0.00064449,0.00164013,0.00051698,-0.00084871,-0
 .00034546,0.00011963,-0.00015189,0.00025947,0.00004812,0.00000785,-0.0
 0007277,-0.00001373,-0.00001334,-0.00000605,-0.00000277,0.00000788,-0.
 00000088,0.00000671,0.00000252,-0.00000328,0.00000229,0.00000412,-0.00
 000196,0.00000354,-0.00000222,-0.00000076,0.00000320,0.00000032,-0.000
 00196,0.00000166,-0.00000361,-0.00000066,-0.00000226,-0.00000201,-0.00
 000047,-0.00000229,0.00000410,-0.00000570,-0.00000166,0.00001715,0.000
 00100,0.00049110,0.00036806,-0.00002300,-0.09137586,0.29275926,0.00218
 820,-0.00333741,0.00386647,0.00020646,-0.00213533,0.00791921,-0.000084
 93,0.00034923,-0.00045087,0.00128261,-0.00051727,0.00400995,-0.0000854
 8,-0.00031845,0.00006582,-0.00004118,0.00009222,-0.00016437,-0.0000150
 9,0.00001799,0.00004102,0.00001230,0.00001978,-0.00001010,0.00001491,-
 0.00000306,0.00000140,-0.00000673,-0.00001268,-0.00001587,0.00000681,-
 0.00000383,-0.00000436,0.00000656,0.00000739,0.00000033,-0.00000087,-0
 .00000560,0.00000033,0.00000378,0.00000220,-0.00000258,0.00000122,0.00
 000176,-0.00000035,-0.00000089,-0.00000138,-0.00000018,-0.00000009,0.0
 0000133,-0.00000058,-0.00000093,-0.00000129,-0.00000012,-0.00000212,-0
 .00000107,0.00000321,0.00000457,0.00000018,-0.00000189,-0.00001303,0.0
 0000519,-0.00000399,0.00001437,-0.00006225,0.00012119,0.00003696,0.000
 15468,-0.00013987,-0.00092111,0.00052461,-0.00230856,0.00122219,-0.004
 80154,0.00222513,0.03000194,-0.07509379,-0.06134628,-0.00083951,0.0015
 5907,-0.00503617,0.00011829,-0.00015792,0.00013565,-0.00013351,0.00026
 166,-0.00109861,0.00010299,-0.00007385,0.00021918,-0.00000485,-0.00000
 546,0.00001618,0.00000009,0.00000298,0.00000320,0.00000408,0.00000080,
 0.00000412,0.00000137,0.00000157,0.00000013,0.00000142,-0.00000061,0.0
 0000045,0.00000130,0.00000025,-0.00000021,0.00000068,-0.00000098,0.000
 00028,-0.00000063,0.00000071,0.00000055,-0.00000012,0.00000039,-0.0000
 0074,0.00000466,0.00000852,0.00000158,0.00019190,0.00020597,0.00021309
 ,-0.03327859,0.08331530,0.05173722\\0.00000143,0.00000744,0.00000113,0
 .00000541,-0.00000381,-0.00000242,-0.00001049,-0.00000232,0.00000209,0
 .00001060,-0.00000413,-0.00000081,-0.00000187,0.00000864,0.00000263,-0
 .00000447,-0.00001623,-0.00000974,0.00000608,0.00001104,0.00000422,0.,
 0.00000358,0.00000162,-0.00000667,0.00000116,0.00000724,-0.00000103,0.
 00001540,0.00000072,-0.00000316,0.00000329,-0.00000345,0.00001372,0.00
 000200,-0.00000517,-0.00001746,0.00002063,0.00001496,0.00000872,-0.000
 03065,-0.00001257,0.00000680,0.00002089,0.00000840,-0.00000584,-0.0000
 2626,0.00000697,0.00002621,-0.00000094,-0.00002240,-0.00002159,0.00001
 540,0.00001572,0.00000591,-0.00001851,0.00000391,-0.00001659,0.0000409
 4,-0.00000423,0.00001160,-0.00003960,-0.00001380,0.00001127,-0.0000057
 5,-0.00000109,-0.00001367,0.00000745,0.00000506,0.00000446,-0.00000514
 ,-0.00000402,0.00000403,0.00001117,0.00000106,-0.00000901,-0.00000690,
 -0.00000166,-0.00000133,0.00000079,0.00000044,-0.00000067,-0.00000147,
 -0.00000108,0.00000029,-0.00000089,-0.00000052,-0.00000060,-0.00000253
 ,0.00000060,0.00000077,-0.00000605,-0.00000244,0.00000089,-0.00000127,
 0.00000055,0.00000295,-0.00000150,0.00000254,-0.00000172,0.00000025,-0
 .00000260,-0.00000156,-0.00000002,0.00000199,0.00000189,0.00000306,0.0
 0000141,0.00000077,0.00000008,0.00000507,-0.00000028,-0.00000418,-0.00
 000428,-0.00000271,0.00000068,0.00000330,-0.00000158,0.00000146,-0.000
 00020,-0.00000143,0.00000133,0.00000045,-0.00000010,0.00000146,0.00000
 037\\\@
 The archive entry for this job was punched.


 A MAN BEGINS CUTTING HIS WISDOM TEETH THE 1ST
 TIME HE BITES OFF MORE THAN HE CAN CHEW.
 Job cpu time:       0 days  2 hours  6 minutes  9.8 seconds.
 Elapsed time:       0 days  0 hours 15 minutes 46.3 seconds.
 File lengths (MBytes):  RWF=    771 Int=      0 D2E=      0 Chk=     15 Scr=      1
 Normal termination of Gaussian 16 at Tue Oct  8 21:57:22 2024.
