 Entering Gaussian System, Link 0=g16
 Initial command:
 /opt/g16/l1.exe "/tmp/Gau-1204510.inp" -scrdir="/tmp/"
 Entering Link 1 = /opt/g16/l1.exe PID=   1204512.
  
 Copyright (c) 1988-2019, Gaussian, Inc.  All Rights Reserved.
  
 This is part of the Gaussian(R) 16 program.  It is based on
 the Gaussian(R) 09 system (copyright 2009, Gaussian, Inc.),
 the Gaussian(R) 03 system (copyright 2003, Gaussian, Inc.),
 the Gaussian(R) 98 system (copyright 1998, Gaussian, Inc.),
 the Gaussian(R) 94 system (copyright 1995, Gaussian, Inc.),
 the Gaussian 92(TM) system (copyright 1992, Gaussian, Inc.),
 the Gaussian 90(TM) system (copyright 1990, Gaussian, Inc.),
 the Gaussian 88(TM) system (copyright 1988, Gaussian, Inc.),
 the Gaussian 86(TM) system (copyright 1986, Carnegie Mellon
 University), and the Gaussian 82(TM) system (copyright 1983,
 Carnegie Mellon University). Gaussian is a federally registered
 trademark of Gaussian, Inc.
  
 This software contains proprietary and confidential information,
 including trade secrets, belonging to Gaussian, Inc.
  
 This software is provided under written license and may be
 used, copied, transmitted, or stored only in accord with that
 written license.
  
 The following legend is applicable only to US Government
 contracts under FAR:
  
                    RESTRICTED RIGHTS LEGEND
  
 Use, reproduction and disclosure by the US Government is
 subject to restrictions as set forth in subparagraphs (a)
 and (c) of the Commercial Computer Software - Restricted
 Rights clause in FAR 52.227-19.
  
 Gaussian, Inc.
 340 Quinnipiac St., Bldg. 40, Wallingford CT 06492
  
  
 ---------------------------------------------------------------
 Warning -- This program may not be used in any manner that
 competes with the business of Gaussian, Inc. or will provide
 assistance to any competitor of Gaussian, Inc.  The licensee
 of this program is prohibited from giving any competitor of
 Gaussian, Inc. access to this program.  By using this program,
 the user acknowledges that Gaussian, Inc. is engaged in the
 business of creating and licensing software in the field of
 computational chemistry and represents and warrants to the
 licensee that it is not a competitor of Gaussian, Inc. and that
 it will not use this program in any manner prohibited above.
 ---------------------------------------------------------------
  

 Cite this work as:
 Gaussian 16, Revision C.01,
 M. J. Frisch, G. W. Trucks, H. B. Schlegel, G. E. Scuseria, 
 M. A. Robb, J. R. Cheeseman, G. Scalmani, V. Barone, 
 G. A. Petersson, H. Nakatsuji, X. Li, M. Caricato, A. V. Marenich, 
 J. Bloino, B. G. Janesko, R. Gomperts, B. Mennucci, H. P. Hratchian, 
 J. V. Ortiz, A. F. Izmaylov, J. L. Sonnenberg, D. Williams-Young, 
 F. Ding, F. Lipparini, F. Egidi, J. Goings, B. Peng, A. Petrone, 
 T. Henderson, D. Ranasinghe, V. G. Zakrzewski, J. Gao, N. Rega, 
 G. Zheng, W. Liang, M. Hada, M. Ehara, K. Toyota, R. Fukuda, 
 J. Hasegawa, M. Ishida, T. Nakajima, Y. Honda, O. Kitao, H. Nakai, 
 T. Vreven, K. Throssell, J. A. Montgomery, Jr., J. E. Peralta, 
 F. Ogliaro, M. J. Bearpark, J. J. Heyd, E. N. Brothers, K. N. Kudin, 
 V. N. Staroverov, T. A. Keith, R. Kobayashi, J. Normand, 
 K. Raghavachari, A. P. Rendell, J. C. Burant, S. S. Iyengar, 
 J. Tomasi, M. Cossi, J. M. Millam, M. Klene, C. Adamo, R. Cammi, 
 J. W. Ochterski, R. L. Martin, K. Morokuma, O. Farkas, 
 J. B. Foresman, and D. J. Fox, Gaussian, Inc., Wallingford CT, 2019.
 
 ******************************************
 Gaussian 16:  ES64L-G16RevC.01  3-Jul-2019
                 8-Oct-2024 
 ******************************************
 %nprocshared=8
 Will use up to    8 processors via shared memory.
 %mem=10400MB
 ----------------------------------------------------------------------
 #N opt freq B3LYP/def2SVPP symm=veryloose em=gd3bj scale=0.961 press=0
 .987
 ----------------------------------------------------------------------
 1/18=20,19=15,26=3,38=1,113=-987000,114=961000/1,3;
 2/9=110,12=2,17=2,18=2,40=1/2;
 3/5=43,7=202,11=2,25=1,30=1,71=1,74=-5,124=41/1,2,3;
 4//1;
 5/5=2,38=5/2;
 6/7=2,8=2,9=2,10=2,28=1/1;
 7//1,2,3,16;
 1/18=20,19=15,26=3/3(2);
 2/9=110/2;
 99//99;
 2/9=110/2;
 3/5=43,7=202,11=2,25=1,30=1,71=1,74=-5,124=41/1,2,3;
 4/5=5,16=3,69=1/1;
 5/5=2,38=5/2;
 7//1,2,3,16;
 1/18=20,19=15,26=3/3(-5);
 2/9=110/2;
 6/7=2,8=2,9=2,10=2,19=2,28=1/1;
 99/9=1/99;
 ------------------------------------------
 c1ccc2cc3c(cc2c1)c1ccccc1c1ccc2ccccc2c13_2
 ------------------------------------------
 Symbolic Z-matrix:
 Charge =  0 Multiplicity = 1
 C                     5.4645   -0.2603    0.3963 
 C                     5.0163   -1.5383    0.712 
 C                     3.6467   -1.7998    0.7622 
 C                     2.7098   -0.7857    0.492 
 C                     1.3255   -1.0194    0.5203 
 C                     0.3352   -0.0438    0.2159 
 C                     0.794     1.286     0.0303 
 C                     2.2027    1.5048   -0.023 
 C                     3.1587    0.4991    0.1877 
 C                     4.5416    0.7541    0.1384 
 C                    -0.1512    2.3555   -0.0615 
 C                     0.234     3.7108   -0.2806 
 C                    -0.6726    4.7687   -0.3122 
 C                    -2.0107    4.5094   -0.1246 
 C                    -2.4252    3.1944    0.0821 
 C                    -1.5306    2.0841    0.117 
 C                    -1.9802    0.7296    0.2864 
 C                    -3.3346    0.43      0.5652 
 C                    -3.8292   -0.8669    0.639 
 C                    -3.011    -1.9381    0.33 
 C                    -3.5729   -3.2273    0.2827 
 C                    -2.8223   -4.3216   -0.1288 
 C                    -1.5128   -4.1256   -0.5267 
 C                    -0.9508   -2.845    -0.4595 
 C                    -1.6464   -1.7068    0.0353 
 C                    -1.0764   -0.3598    0.1757 
 H                     6.5299   -0.0498    0.3564 
 H                     5.7297   -2.3315    0.9189 
 H                     3.3118   -2.8051    1.0083 
 H                     1.0133   -2.0065    0.8547 
 H                     2.5942    2.5012   -0.2047 
 H                     4.9084    1.751    -0.0954 
 H                     1.2737    3.9832   -0.4344 
 H                    -0.3249    5.7838   -0.4817 
 H                    -2.7381    5.3159   -0.148 
 H                    -3.4968    3.057     0.1919 
 H                    -4.0596    1.216     0.7549 
 H                    -4.8815   -1.0131    0.8724 
 H                    -4.618    -3.3835    0.5431 
 H                    -3.271    -5.3096   -0.1752 
 H                    -0.9249   -4.9568   -0.9067 
 H                     0.0519   -2.7404   -0.8676 
 

 GradGradGradGradGradGradGradGradGradGradGradGradGradGradGradGradGradGrad
 Berny optimization.
 Initialization pass.
                           ----------------------------
                           !    Initial Parameters    !
                           ! (Angstroms and Degrees)  !
 --------------------------                            --------------------------
 ! Name  Definition              Value          Derivative Info.                !
 --------------------------------------------------------------------------------
 ! R1    R(1,2)                  1.3906         estimate D2E/DX2                !
 ! R2    R(1,10)                 1.3954         estimate D2E/DX2                !
 ! R3    R(1,27)                 1.0867         estimate D2E/DX2                !
 ! R4    R(2,3)                  1.3952         estimate D2E/DX2                !
 ! R5    R(2,28)                 1.0867         estimate D2E/DX2                !
 ! R6    R(3,4)                  1.4068         estimate D2E/DX2                !
 ! R7    R(3,29)                 1.0878         estimate D2E/DX2                !
 ! R8    R(4,5)                  1.4042         estimate D2E/DX2                !
 ! R9    R(4,9)                  1.3946         estimate D2E/DX2                !
 ! R10   R(5,6)                  1.4231         estimate D2E/DX2                !
 ! R11   R(5,30)                 1.088          estimate D2E/DX2                !
 ! R12   R(6,7)                  1.4189         estimate D2E/DX2                !
 ! R13   R(6,26)                 1.4471         estimate D2E/DX2                !
 ! R14   R(7,8)                  1.4266         estimate D2E/DX2                !
 ! R15   R(7,11)                 1.4303         estimate D2E/DX2                !
 ! R16   R(8,9)                  1.4035         estimate D2E/DX2                !
 ! R17   R(8,31)                 1.0859         estimate D2E/DX2                !
 ! R18   R(9,10)                 1.4071         estimate D2E/DX2                !
 ! R19   R(10,32)                1.0877         estimate D2E/DX2                !
 ! R20   R(11,12)                1.4259         estimate D2E/DX2                !
 ! R21   R(11,16)                1.4171         estimate D2E/DX2                !
 ! R22   R(12,13)                1.3936         estimate D2E/DX2                !
 ! R23   R(12,33)                1.0857         estimate D2E/DX2                !
 ! R24   R(13,14)                1.3758         estimate D2E/DX2                !
 ! R25   R(13,34)                1.0863         estimate D2E/DX2                !
 ! R26   R(14,15)                1.3942         estimate D2E/DX2                !
 ! R27   R(14,35)                1.0863         estimate D2E/DX2                !
 ! R28   R(15,16)                1.4263         estimate D2E/DX2                !
 ! R29   R(15,36)                1.0859         estimate D2E/DX2                !
 ! R30   R(16,17)                1.4372         estimate D2E/DX2                !
 ! R31   R(17,18)                1.4149         estimate D2E/DX2                !
 ! R32   R(17,26)                1.4198         estimate D2E/DX2                !
 ! R33   R(18,19)                1.39           estimate D2E/DX2                !
 ! R34   R(18,37)                1.086          estimate D2E/DX2                !
 ! R35   R(19,20)                1.3829         estimate D2E/DX2                !
 ! R36   R(19,38)                1.0877         estimate D2E/DX2                !
 ! R37   R(20,21)                1.4071         estimate D2E/DX2                !
 ! R38   R(20,25)                1.4151         estimate D2E/DX2                !
 ! R39   R(21,22)                1.3893         estimate D2E/DX2                !
 ! R40   R(21,39)                1.0883         estimate D2E/DX2                !
 ! R41   R(22,23)                1.3826         estimate D2E/DX2                !
 ! R42   R(22,40)                1.0861         estimate D2E/DX2                !
 ! R43   R(23,24)                1.4001         estimate D2E/DX2                !
 ! R44   R(23,41)                1.0867         estimate D2E/DX2                !
 ! R45   R(24,25)                1.4227         estimate D2E/DX2                !
 ! R46   R(24,42)                1.0876         estimate D2E/DX2                !
 ! R47   R(25,26)                1.4694         estimate D2E/DX2                !
 ! A1    A(2,1,10)             119.7926         estimate D2E/DX2                !
 ! A2    A(2,1,27)             120.1539         estimate D2E/DX2                !
 ! A3    A(10,1,27)            120.0524         estimate D2E/DX2                !
 ! A4    A(1,2,3)              119.7878         estimate D2E/DX2                !
 ! A5    A(1,2,28)             120.1616         estimate D2E/DX2                !
 ! A6    A(3,2,28)             120.0506         estimate D2E/DX2                !
 ! A7    A(2,3,4)              120.7779         estimate D2E/DX2                !
 ! A8    A(2,3,29)             118.9175         estimate D2E/DX2                !
 ! A9    A(4,3,29)             120.3036         estimate D2E/DX2                !
 ! A10   A(3,4,5)              122.1877         estimate D2E/DX2                !
 ! A11   A(3,4,9)              119.4484         estimate D2E/DX2                !
 ! A12   A(5,4,9)              118.3636         estimate D2E/DX2                !
 ! A13   A(4,5,6)              124.5849         estimate D2E/DX2                !
 ! A14   A(4,5,30)             116.11           estimate D2E/DX2                !
 ! A15   A(6,5,30)             119.2129         estimate D2E/DX2                !
 ! A16   A(5,6,7)              116.4533         estimate D2E/DX2                !
 ! A17   A(5,6,26)             122.3477         estimate D2E/DX2                !
 ! A18   A(7,6,26)             121.0934         estimate D2E/DX2                !
 ! A19   A(6,7,8)              117.8994         estimate D2E/DX2                !
 ! A20   A(6,7,11)             119.7035         estimate D2E/DX2                !
 ! A21   A(8,7,11)             122.3768         estimate D2E/DX2                !
 ! A22   A(7,8,9)              123.8562         estimate D2E/DX2                !
 ! A23   A(7,8,31)             120.1994         estimate D2E/DX2                !
 ! A24   A(9,8,31)             115.917          estimate D2E/DX2                !
 ! A25   A(4,9,8)              118.2728         estimate D2E/DX2                !
 ! A26   A(4,9,10)             119.4042         estimate D2E/DX2                !
 ! A27   A(8,9,10)             122.2989         estimate D2E/DX2                !
 ! A28   A(1,10,9)             120.7829         estimate D2E/DX2                !
 ! A29   A(1,10,32)            118.8792         estimate D2E/DX2                !
 ! A30   A(9,10,32)            120.3364         estimate D2E/DX2                !
 ! A31   A(7,11,12)            122.8247         estimate D2E/DX2                !
 ! A32   A(7,11,16)            119.4701         estimate D2E/DX2                !
 ! A33   A(12,11,16)           117.6672         estimate D2E/DX2                !
 ! A34   A(11,12,13)           123.3171         estimate D2E/DX2                !
 ! A35   A(11,12,33)           121.2597         estimate D2E/DX2                !
 ! A36   A(13,12,33)           115.4231         estimate D2E/DX2                !
 ! A37   A(12,13,14)           119.1138         estimate D2E/DX2                !
 ! A38   A(12,13,34)           120.3099         estimate D2E/DX2                !
 ! A39   A(14,13,34)           120.5763         estimate D2E/DX2                !
 ! A40   A(13,14,15)           119.1519         estimate D2E/DX2                !
 ! A41   A(13,14,35)           120.5555         estimate D2E/DX2                !
 ! A42   A(15,14,35)           120.289          estimate D2E/DX2                !
 ! A43   A(14,15,16)           123.4625         estimate D2E/DX2                !
 ! A44   A(14,15,36)           115.3224         estimate D2E/DX2                !
 ! A45   A(16,15,36)           121.1963         estimate D2E/DX2                !
 ! A46   A(11,16,15)           117.2811         estimate D2E/DX2                !
 ! A47   A(11,16,17)           119.9898         estimate D2E/DX2                !
 ! A48   A(15,16,17)           122.7065         estimate D2E/DX2                !
 ! A49   A(16,17,18)           121.4835         estimate D2E/DX2                !
 ! A50   A(16,17,26)           120.9846         estimate D2E/DX2                !
 ! A51   A(18,17,26)           117.5317         estimate D2E/DX2                !
 ! A52   A(17,18,19)           123.2749         estimate D2E/DX2                !
 ! A53   A(17,18,37)           121.3465         estimate D2E/DX2                !
 ! A54   A(19,18,37)           115.3703         estimate D2E/DX2                !
 ! A55   A(18,19,20)           120.0227         estimate D2E/DX2                !
 ! A56   A(18,19,38)           118.7533         estimate D2E/DX2                !
 ! A57   A(20,19,38)           121.0784         estimate D2E/DX2                !
 ! A58   A(19,20,21)           118.7466         estimate D2E/DX2                !
 ! A59   A(19,20,25)           119.3714         estimate D2E/DX2                !
 ! A60   A(21,20,25)           121.859          estimate D2E/DX2                !
 ! A61   A(20,21,22)           121.0546         estimate D2E/DX2                !
 ! A62   A(20,21,39)           120.4588         estimate D2E/DX2                !
 ! A63   A(22,21,39)           118.4654         estimate D2E/DX2                !
 ! A64   A(21,22,23)           119.0312         estimate D2E/DX2                !
 ! A65   A(21,22,40)           120.3949         estimate D2E/DX2                !
 ! A66   A(23,22,40)           120.5276         estimate D2E/DX2                !
 ! A67   A(22,23,24)           119.7378         estimate D2E/DX2                !
 ! A68   A(22,23,41)           120.305          estimate D2E/DX2                !
 ! A69   A(24,23,41)           119.9488         estimate D2E/DX2                !
 ! A70   A(23,24,25)           123.5156         estimate D2E/DX2                !
 ! A71   A(23,24,42)           116.105          estimate D2E/DX2                !
 ! A72   A(25,24,42)           120.2851         estimate D2E/DX2                !
 ! A73   A(20,25,24)           114.402          estimate D2E/DX2                !
 ! A74   A(20,25,26)           120.2666         estimate D2E/DX2                !
 ! A75   A(24,25,26)           125.2366         estimate D2E/DX2                !
 ! A76   A(6,26,17)            116.8225         estimate D2E/DX2                !
 ! A77   A(6,26,25)            125.5383         estimate D2E/DX2                !
 ! A78   A(17,26,25)           117.6389         estimate D2E/DX2                !
 ! D1    D(10,1,2,3)             0.3253         estimate D2E/DX2                !
 ! D2    D(10,1,2,28)         -179.6873         estimate D2E/DX2                !
 ! D3    D(27,1,2,3)           179.9452         estimate D2E/DX2                !
 ! D4    D(27,1,2,28)           -0.0675         estimate D2E/DX2                !
 ! D5    D(2,1,10,9)            -0.2893         estimate D2E/DX2                !
 ! D6    D(2,1,10,32)          179.2783         estimate D2E/DX2                !
 ! D7    D(27,1,10,9)         -179.9095         estimate D2E/DX2                !
 ! D8    D(27,1,10,32)          -0.3419         estimate D2E/DX2                !
 ! D9    D(1,2,3,4)              0.2357         estimate D2E/DX2                !
 ! D10   D(1,2,3,29)           179.8579         estimate D2E/DX2                !
 ! D11   D(28,2,3,4)          -179.7517         estimate D2E/DX2                !
 ! D12   D(28,2,3,29)           -0.1295         estimate D2E/DX2                !
 ! D13   D(2,3,4,5)            179.3168         estimate D2E/DX2                !
 ! D14   D(2,3,4,9)             -0.8344         estimate D2E/DX2                !
 ! D15   D(29,3,4,5)            -0.3001         estimate D2E/DX2                !
 ! D16   D(29,3,4,9)           179.5487         estimate D2E/DX2                !
 ! D17   D(3,4,5,6)           -177.9789         estimate D2E/DX2                !
 ! D18   D(3,4,5,30)             5.5522         estimate D2E/DX2                !
 ! D19   D(9,4,5,6)              2.1707         estimate D2E/DX2                !
 ! D20   D(9,4,5,30)          -174.2982         estimate D2E/DX2                !
 ! D21   D(3,4,9,8)           -177.3936         estimate D2E/DX2                !
 ! D22   D(3,4,9,10)             0.8614         estimate D2E/DX2                !
 ! D23   D(5,4,9,8)              2.461          estimate D2E/DX2                !
 ! D24   D(5,4,9,10)          -179.284          estimate D2E/DX2                !
 ! D25   D(4,5,6,7)             -7.8113         estimate D2E/DX2                !
 ! D26   D(4,5,6,26)           175.8896         estimate D2E/DX2                !
 ! D27   D(30,5,6,7)           168.5558         estimate D2E/DX2                !
 ! D28   D(30,5,6,26)           -7.7433         estimate D2E/DX2                !
 ! D29   D(5,6,7,8)              8.5391         estimate D2E/DX2                !
 ! D30   D(5,6,7,11)          -169.8595         estimate D2E/DX2                !
 ! D31   D(26,6,7,8)          -175.112          estimate D2E/DX2                !
 ! D32   D(26,6,7,11)            6.4894         estimate D2E/DX2                !
 ! D33   D(5,6,26,17)          160.5448         estimate D2E/DX2                !
 ! D34   D(5,6,26,25)          -19.2345         estimate D2E/DX2                !
 ! D35   D(7,6,26,17)          -15.5856         estimate D2E/DX2                !
 ! D36   D(7,6,26,25)          164.6351         estimate D2E/DX2                !
 ! D37   D(6,7,8,9)             -4.5151         estimate D2E/DX2                !
 ! D38   D(6,7,8,31)           177.469          estimate D2E/DX2                !
 ! D39   D(11,7,8,9)           173.8378         estimate D2E/DX2                !
 ! D40   D(11,7,8,31)           -4.178          estimate D2E/DX2                !
 ! D41   D(6,7,11,12)         -178.4096         estimate D2E/DX2                !
 ! D42   D(6,7,11,16)            3.8885         estimate D2E/DX2                !
 ! D43   D(8,7,11,12)            3.2662         estimate D2E/DX2                !
 ! D44   D(8,7,11,16)         -174.4357         estimate D2E/DX2                !
 ! D45   D(7,8,9,4)             -1.2509         estimate D2E/DX2                !
 ! D46   D(7,8,9,10)          -179.4524         estimate D2E/DX2                !
 ! D47   D(31,8,9,4)           176.8425         estimate D2E/DX2                !
 ! D48   D(31,8,9,10)           -1.359          estimate D2E/DX2                !
 ! D49   D(4,9,10,1)            -0.3108         estimate D2E/DX2                !
 ! D50   D(4,9,10,32)         -179.8722         estimate D2E/DX2                !
 ! D51   D(8,9,10,1)           177.871          estimate D2E/DX2                !
 ! D52   D(8,9,10,32)           -1.6904         estimate D2E/DX2                !
 ! D53   D(7,11,12,13)        -177.0317         estimate D2E/DX2                !
 ! D54   D(7,11,12,33)           2.8852         estimate D2E/DX2                !
 ! D55   D(16,11,12,13)          0.7092         estimate D2E/DX2                !
 ! D56   D(16,11,12,33)       -179.3738         estimate D2E/DX2                !
 ! D57   D(7,11,16,15)         176.9508         estimate D2E/DX2                !
 ! D58   D(7,11,16,17)          -4.7348         estimate D2E/DX2                !
 ! D59   D(12,11,16,15)         -0.8687         estimate D2E/DX2                !
 ! D60   D(12,11,16,17)        177.4457         estimate D2E/DX2                !
 ! D61   D(11,12,13,14)         -0.0159         estimate D2E/DX2                !
 ! D62   D(11,12,13,34)        179.9134         estimate D2E/DX2                !
 ! D63   D(33,12,13,14)       -179.9373         estimate D2E/DX2                !
 ! D64   D(33,12,13,34)         -0.008          estimate D2E/DX2                !
 ! D65   D(12,13,14,15)         -0.4756         estimate D2E/DX2                !
 ! D66   D(12,13,14,35)       -179.7895         estimate D2E/DX2                !
 ! D67   D(34,13,14,15)        179.5953         estimate D2E/DX2                !
 ! D68   D(34,13,14,35)          0.2814         estimate D2E/DX2                !
 ! D69   D(13,14,15,16)          0.2773         estimate D2E/DX2                !
 ! D70   D(13,14,15,36)       -178.1586         estimate D2E/DX2                !
 ! D71   D(35,14,15,16)        179.5931         estimate D2E/DX2                !
 ! D72   D(35,14,15,36)          1.1571         estimate D2E/DX2                !
 ! D73   D(14,15,16,11)          0.4179         estimate D2E/DX2                !
 ! D74   D(14,15,16,17)       -177.847          estimate D2E/DX2                !
 ! D75   D(36,15,16,11)        178.7651         estimate D2E/DX2                !
 ! D76   D(36,15,16,17)          0.5002         estimate D2E/DX2                !
 ! D77   D(11,16,17,18)        175.2641         estimate D2E/DX2                !
 ! D78   D(11,16,17,26)         -4.9022         estimate D2E/DX2                !
 ! D79   D(15,16,17,18)         -6.5163         estimate D2E/DX2                !
 ! D80   D(15,16,17,26)        173.3174         estimate D2E/DX2                !
 ! D81   D(16,17,18,19)        175.126          estimate D2E/DX2                !
 ! D82   D(16,17,18,37)         -5.97           estimate D2E/DX2                !
 ! D83   D(26,17,18,19)         -4.7132         estimate D2E/DX2                !
 ! D84   D(26,17,18,37)        174.1908         estimate D2E/DX2                !
 ! D85   D(16,17,26,6)          14.7116         estimate D2E/DX2                !
 ! D86   D(16,17,26,25)       -165.4912         estimate D2E/DX2                !
 ! D87   D(18,17,26,6)        -165.4484         estimate D2E/DX2                !
 ! D88   D(18,17,26,25)         14.3489         estimate D2E/DX2                !
 ! D89   D(17,18,19,20)         -5.2046         estimate D2E/DX2                !
 ! D90   D(17,18,19,38)        179.1334         estimate D2E/DX2                !
 ! D91   D(37,18,19,20)        175.8313         estimate D2E/DX2                !
 ! D92   D(37,18,19,38)          0.1693         estimate D2E/DX2                !
 ! D93   D(18,19,20,21)       -173.69           estimate D2E/DX2                !
 ! D94   D(18,19,20,25)          4.5972         estimate D2E/DX2                !
 ! D95   D(38,19,20,21)          1.8692         estimate D2E/DX2                !
 ! D96   D(38,19,20,25)       -179.8436         estimate D2E/DX2                !
 ! D97   D(19,20,21,22)        174.676          estimate D2E/DX2                !
 ! D98   D(19,20,21,39)         -3.6253         estimate D2E/DX2                !
 ! D99   D(25,20,21,22)         -3.5666         estimate D2E/DX2                !
 ! D100  D(25,20,21,39)        178.1321         estimate D2E/DX2                !
 ! D101  D(19,20,25,24)       -171.0925         estimate D2E/DX2                !
 ! D102  D(19,20,25,26)          5.5495         estimate D2E/DX2                !
 ! D103  D(21,20,25,24)          7.1394         estimate D2E/DX2                !
 ! D104  D(21,20,25,26)       -176.2186         estimate D2E/DX2                !
 ! D105  D(20,21,22,23)         -1.5585         estimate D2E/DX2                !
 ! D106  D(20,21,22,40)       -179.0973         estimate D2E/DX2                !
 ! D107  D(39,21,22,23)        176.7759         estimate D2E/DX2                !
 ! D108  D(39,21,22,40)         -0.7629         estimate D2E/DX2                !
 ! D109  D(21,22,23,24)          2.4877         estimate D2E/DX2                !
 ! D110  D(21,22,23,41)       -176.4566         estimate D2E/DX2                !
 ! D111  D(40,22,23,24)       -179.9769         estimate D2E/DX2                !
 ! D112  D(40,22,23,41)          1.0789         estimate D2E/DX2                !
 ! D113  D(22,23,24,25)          1.6371         estimate D2E/DX2                !
 ! D114  D(22,23,24,42)       -174.832          estimate D2E/DX2                !
 ! D115  D(41,23,24,25)       -179.4149         estimate D2E/DX2                !
 ! D116  D(41,23,24,42)          4.1161         estimate D2E/DX2                !
 ! D117  D(23,24,25,20)         -6.2806         estimate D2E/DX2                !
 ! D118  D(23,24,25,26)        177.2705         estimate D2E/DX2                !
 ! D119  D(42,24,25,20)        170.0474         estimate D2E/DX2                !
 ! D120  D(42,24,25,26)         -6.4016         estimate D2E/DX2                !
 ! D121  D(20,25,26,6)         164.6115         estimate D2E/DX2                !
 ! D122  D(20,25,26,17)        -15.1661         estimate D2E/DX2                !
 ! D123  D(24,25,26,6)         -19.133          estimate D2E/DX2                !
 ! D124  D(24,25,26,17)        161.0894         estimate D2E/DX2                !
 --------------------------------------------------------------------------------
 Trust Radius=3.00D-01 FncErr=1.00D-07 GrdErr=1.00D-06 EigMax=2.50D+02 EigMin=1.00D-04
 Number of steps in this run=    252 maximum allowed number of steps=    252.
 GradGradGradGradGradGradGradGradGradGradGradGradGradGradGradGradGradGrad

                          Input orientation:                          
 ---------------------------------------------------------------------
 Center     Atomic      Atomic             Coordinates (Angstroms)
 Number     Number       Type             X           Y           Z
 ---------------------------------------------------------------------
      1          6           0        5.464500   -0.260300    0.396300
      2          6           0        5.016300   -1.538300    0.712000
      3          6           0        3.646700   -1.799800    0.762200
      4          6           0        2.709800   -0.785700    0.492000
      5          6           0        1.325500   -1.019400    0.520300
      6          6           0        0.335200   -0.043800    0.215900
      7          6           0        0.794000    1.286000    0.030300
      8          6           0        2.202700    1.504800   -0.023000
      9          6           0        3.158700    0.499100    0.187700
     10          6           0        4.541600    0.754100    0.138400
     11          6           0       -0.151200    2.355500   -0.061500
     12          6           0        0.234000    3.710800   -0.280600
     13          6           0       -0.672600    4.768700   -0.312200
     14          6           0       -2.010700    4.509400   -0.124600
     15          6           0       -2.425200    3.194400    0.082100
     16          6           0       -1.530600    2.084100    0.117000
     17          6           0       -1.980200    0.729600    0.286400
     18          6           0       -3.334600    0.430000    0.565200
     19          6           0       -3.829200   -0.866900    0.639000
     20          6           0       -3.011000   -1.938100    0.330000
     21          6           0       -3.572900   -3.227300    0.282700
     22          6           0       -2.822300   -4.321600   -0.128800
     23          6           0       -1.512800   -4.125600   -0.526700
     24          6           0       -0.950800   -2.845000   -0.459500
     25          6           0       -1.646400   -1.706800    0.035300
     26          6           0       -1.076400   -0.359800    0.175700
     27          1           0        6.529900   -0.049800    0.356400
     28          1           0        5.729700   -2.331500    0.918900
     29          1           0        3.311800   -2.805100    1.008300
     30          1           0        1.013300   -2.006500    0.854700
     31          1           0        2.594200    2.501200   -0.204700
     32          1           0        4.908400    1.751000   -0.095400
     33          1           0        1.273700    3.983200   -0.434400
     34          1           0       -0.324900    5.783800   -0.481700
     35          1           0       -2.738100    5.315900   -0.148000
     36          1           0       -3.496800    3.057000    0.191900
     37          1           0       -4.059600    1.216000    0.754900
     38          1           0       -4.881500   -1.013100    0.872400
     39          1           0       -4.618000   -3.383500    0.543100
     40          1           0       -3.271000   -5.309600   -0.175200
     41          1           0       -0.924900   -4.956800   -0.906700
     42          1           0        0.051900   -2.740400   -0.867600
 ---------------------------------------------------------------------
                    Distance matrix (angstroms):
                    1          2          3          4          5
     1  C    0.000000
     2  C    1.390624   0.000000
     3  C    2.410050   1.395244   0.000000
     4  C    2.805989   2.436134   1.406836   0.000000
     5  C    4.209861   3.732025   2.460794   1.404173   0.000000
     6  C    5.137036   4.938860   3.787877   2.503073   1.423077
     7  C    4.933414   5.125349   4.265646   2.859265   2.416084
     8  C    3.732389   4.209160   3.690807   2.401825   2.726947
     9  C    2.436579   2.806522   2.419325   1.394568   2.403557
    10  C    1.395444   2.410281   2.777117   2.418989   3.692485
    11  C    6.211930   6.516367   5.689380   4.284719   3.729488
    12  C    6.601966   7.169986   6.565110   5.190858   4.920122
    13  C    7.965978   8.555163   7.934474   6.552765   6.179609
    14  C    8.882567   9.308776   8.520481   7.120492   6.489511
    15  C    8.618645   8.841445   7.891295   6.509796   5.658258
    16  C    7.382794   7.505845   6.504260   5.133943   4.236941
    17  C    7.511028   7.367192   6.187589   4.933002   3.747181
    18  C    8.827752   8.580984   7.331396   6.165878   4.880503
    19  C    9.316637   8.871244   7.534890   6.541156   5.158321
    20  C    8.640226   8.046323   6.673147   5.837964   4.436830
    21  C    9.512654   8.764210   7.374978   6.743703   5.378252
    22  C    9.243427   8.360464   7.000094   6.594855   5.341358
    23  C    8.029644   7.131455   5.804399   5.479328   4.335970
    24  C    6.969156   6.219820   4.870524   4.306514   3.078046
    25  C    7.265506   6.699096   5.343589   4.475877   3.088678
    26  C    6.545375   6.228762   4.972450   3.823185   2.514547
    27  H    1.086729   2.152456   3.397060   3.892698   5.296486
    28  H    2.152513   1.086698   2.155493   3.419289   4.612750
    29  H    3.388904   2.144271   1.087820   2.169550   2.715190
    30  H    4.803387   4.032813   2.643119   2.121324   1.087961
    31  H    4.028114   4.798382   4.532246   3.361914   3.811804
    32  H    2.143909   3.388662   3.864653   3.407892   4.570708
    33  H    6.021641   6.768179   6.364438   5.065867   5.093147
    34  H    8.415413   9.141471   8.650542   7.301769   7.071871
    35  H    9.933424  10.385104   9.603506   8.204800   7.556156
    36  H    9.557780   9.688145   8.656982   7.306045   6.322931
    37  H    9.644508   9.484723   8.275395   7.064042   5.835354
    38  H   10.384272   9.913022   8.565117   7.604226   6.216982
    39  H   10.556170   9.810863   8.417920   7.774820   6.396458
    40  H   10.105988   9.148178   7.813577   7.528665   6.325927
    41  H    8.036128   7.043024   5.800983   5.706617   4.754340
    42  H    6.086426   5.346536   4.057532   3.568445   2.551502
                    6          7          8          9         10
     6  C    0.000000
     7  C    1.418913   0.000000
     8  C    2.437784   1.426587   0.000000
     9  C    2.875359   2.497157   1.403482   0.000000
    10  C    4.282108   3.786702   2.461718   1.407078   0.000000
    11  C    2.463773   1.430266   2.503202   3.803125   4.962541
    12  C    3.788638   2.507970   2.967924   4.369004   5.241474
    13  C    4.945170   3.794393   4.359361   5.758320   6.596055
    14  C    5.133305   4.275587   5.175972   6.550018   7.556724
    15  C    4.257188   3.742716   4.927804   6.201269   7.382041
    16  C    2.831775   2.459318   3.780571   4.950430   6.216186
    17  C    2.442170   2.841013   4.265362   5.145014   6.523525
    18  C    3.716709   4.250199   5.671231   6.504631   7.894411
    19  C    4.265997   5.136095   6.515138   7.134450   8.540991
    20  C    3.846875   4.996265   6.257862   6.635163   8.020375
    21  C    5.041069   6.285173   7.472869   7.694772   9.039772
    22  C    5.328058   6.674438   7.694723   7.688412   8.947690
    23  C    4.541767   5.909060   6.764618   6.612196   7.804460
    24  C    3.155421   4.511030   5.390348   5.337590   6.593744
    25  C    2.593246   3.861661   5.013317   5.289443   6.660180
    26  C    1.447096   2.495635   3.777395   4.321334   5.727485
    27  H    6.196296   5.898411   4.613609   3.419757   2.155717
    28  H    5.901560   6.183611   5.295668   3.893198   3.397306
    29  H    4.136765   4.902336   4.568251   3.408014   3.864847
    30  H    2.172574   3.401218   3.809758   3.365362   4.536838
    31  H    3.428850   2.184641   1.085864   2.116847   2.638644
    32  H    4.922639   4.142501   2.717843   2.169988   1.087665
    33  H    4.185738   2.778659   2.678574   4.009886   4.629725
    34  H    5.906209   4.663077   4.990893   6.364874   7.026039
    35  H    6.189021   5.361680   6.241123   7.621450   8.595701
    36  H    4.929479   4.644730   5.910990   7.130116   8.361943
    37  H    4.603464   4.907889   6.317035   7.275955   8.635628
    38  H    5.346447   6.181124   7.571489   8.209773   9.615434
    39  H    5.982879   7.166376   8.410582   8.699308  10.058916
    40  H    6.394239   7.750380   8.741888   8.672585   9.894621
    41  H    5.194772   6.542564   7.232917   6.902199   7.974286
    42  H    2.919911   4.191519   4.833323   4.610881   5.777627
                   11         12         13         14         15
    11  C    0.000000
    12  C    1.425911   0.000000
    13  C    2.481581   1.393583   0.000000
    14  C    2.846227   2.387630   1.375842   0.000000
    15  C    2.428055   2.733050   2.388619   1.394188   0.000000
    16  C    1.417133   2.432705   2.850869   2.484139   1.426287
    17  C    2.471806   3.756557   4.287478   3.802202   2.512967
    18  C    3.772842   4.920765   5.165307   4.343966   2.949966
    19  C    4.939863   6.189555   6.529081   5.726659   4.333072
    20  C    5.173657   6.543159   7.131739   6.540452   5.171767
    21  C    6.556993   7.933916   8.526527   7.903347   6.526537
    22  C    7.191868   8.595549   9.342826   8.868217   7.529437
    23  C    6.638902   8.032499   8.936471   8.658684   7.401724
    24  C    5.276643   6.664403   7.620205   7.437926   6.240316
    25  C    4.329812   5.743352   6.557526   6.228918   4.962911
    26  C    2.878387   4.300598   5.167457   4.967112   3.802678
    27  H    7.113171   7.361130   8.691431   9.693272   9.528583
    28  H    7.583808   8.255356   9.639393  10.382707   9.886263
    29  H    6.306238   7.320592   8.659192   9.116709   8.352545
    30  H    4.606791   5.880794   7.078647   7.249866   6.282480
    31  H    2.752990   2.653194   3.978077   5.024379   5.075151
    32  H    5.095696   5.071995   6.348313   7.448729   7.476403
    33  H    2.195177   1.085740   2.102386   3.340680   3.817177
    34  H    3.458320   2.156418   1.086303   2.143254   3.381438
    35  H    3.932366   3.380430   2.143054   1.086324   2.156760
    36  H    3.427733   3.817012   3.340679   2.101935   1.085938
    37  H    4.152175   5.072602   5.023161   3.977184   2.652921
    38  H    5.881783   7.057831   7.248954   6.303452   4.935690
    39  H    7.297531   8.634204   9.097037   8.339167   6.949076
    40  H    8.276463   9.678003  10.408774   9.899681   8.549830
    41  H    7.401534   8.767117   9.746919   9.560313   8.346897
    42  H    5.163259   6.480410   7.564387   7.574032   6.500754
                   16         17         18         19         20
    16  C    0.000000
    17  C    1.437187   0.000000
    18  C    2.488242   1.414881   0.000000
    19  C    3.776830   2.468186   1.389973   0.000000
    20  C    4.291276   2.860257   2.401652   1.382896   0.000000
    21  C    5.692927   4.265415   3.675927   2.400860   1.407127
    22  C    6.539258   5.137718   4.829264   3.679445   2.434580
    23  C    6.242999   4.944953   5.026400   4.164576   2.786341
    24  C    4.996453   3.793916   4.178294   3.661252   2.385414
    25  C    3.793548   2.471946   2.774298   2.415471   1.415090
    26  C    2.486441   1.419824   2.423832   2.837200   2.501503
    27  H    8.341613   8.546003   9.878369  10.395118   9.726004
    28  H    8.535369   8.319432   9.482221   9.674501   8.769345
    29  H    6.938842   6.404725   7.405190   7.408568   6.417911
    30  H    4.873257   4.095150   4.992452   4.979460   4.058938
    31  H    4.158298   4.929998   6.327186   7.301780   7.170185
    32  H    6.451108   6.974370   8.374275   9.150869   8.746846
    33  H    3.431431   4.657610   5.904309   7.121464   7.348793
    34  H    3.936996   5.373540   6.230367   7.600520   8.215944
    35  H    3.460175   4.668754   4.973579   6.327471   7.274852
    36  H    2.195014   2.779532   2.658344   3.963254   5.020567
    37  H    2.748883   2.186317   1.086005   2.098807   3.350888
    38  H    4.625128   3.434813   2.137711   1.087743   2.156060
    39  H    6.293509   4.893003   4.023728   2.639068   2.171875
    40  H    7.601393   6.192833   5.787508   4.551054   3.419041
    41  H    7.140666   5.905277   6.082003   5.248946   3.872182
    42  H    5.171996   4.183545   4.855176   4.565390   3.385157
                   21         22         23         24         25
    21  C    0.000000
    22  C    1.389325   0.000000
    23  C    2.388741   1.382581   0.000000
    24  C    2.751804   2.406704   1.400106   0.000000
    25  C    2.466684   2.871733   2.486823   1.422739   0.000000
    26  C    3.803488   4.340132   3.855523   2.568165   1.469361
    27  H   10.590963  10.293072   9.059638   8.027435   8.348691
    28  H    9.367261   8.842787   7.600155   6.840523   7.455055
    29  H    6.935693   6.420277   5.232276   4.508413   5.170758
    30  H    4.780248   4.586806   3.574917   2.507567   2.799150
    31  H    8.431275   8.711764   7.802923   6.419798   5.978926
    32  H    9.841691   9.830631   8.715059   7.455603   7.412076
    33  H    8.717515   9.265005   8.574715   7.181458   6.412776
    34  H    9.609044  10.415405   9.980448   8.651499   7.623827
    35  H    8.594688   9.637887   9.528205   8.360129   7.109411
    36  H    6.285417   7.416302   7.486146   6.460653   5.112954
    37  H    4.494749   5.742547   6.054864   5.256532   3.857994
    38  H    2.638723   4.023541   4.795131   4.536542   3.412891
    39  H    1.088320   2.134483   3.367113   3.839732   3.449578
    40  H    2.153321   1.086107   2.148645   3.396823   3.957752
    41  H    3.379016   2.146796   1.086701   2.158786   3.459830
    42  H    3.833984   3.362595   2.117375   1.087609   2.183525
                   26         27         28         29         30
    26  C    0.000000
    27  H    7.614759   0.000000
    28  H    7.124812   2.482515   0.000000
    29  H    5.092054   4.286353   2.465467   0.000000
    30  H    2.745816   5.874509   4.728020   2.438126   0.000000
    31  H    4.669404   4.723576   5.869312   5.490277   4.892947
    32  H    6.351913   2.465008   4.286041   4.952306   5.494843
    33  H    4.975625   6.672188   7.846196   7.232997   6.132381
    34  H    6.224207   9.039999  10.221446   9.445363   8.016578
    35  H    5.922803  10.721053  11.459696  10.192593   8.288302
    36  H    4.187257  10.498285  10.709471   9.021516   6.813174
    37  H    3.423171  10.672327  10.413551   8.400654   6.010722
    38  H    3.923134  11.463606  10.692890   8.388081   5.977945
    39  H    4.671261  11.637186  10.407825   7.964464   5.805580
    40  H    5.425857  11.135786   9.543518   7.141880   5.506940
    41  H    4.725140   9.013774   7.383002   5.123150   3.945050
    42  H    2.833512   7.120533   5.966255   3.761667   2.104570
                   31         32         33         34         35
    31  H    0.000000
    32  H    2.435214   0.000000
    33  H    1.998201   4.278865   0.000000
    34  H    4.401515   6.618167   2.408302   0.000000
    35  H    6.029857   8.436838   4.237057   2.480689   0.000000
    36  H    6.129151   8.510909   4.899772   4.236759   2.407029
    37  H    6.844386   9.024093   6.125024   6.028429   4.401224
    38  H    8.330459  10.218563   8.034751   8.294217   6.759558
    39  H    9.338347  10.840806   9.483454  10.174493   8.926993
    40  H    9.767806  10.805602  10.347831  11.482028  10.638890
    41  H    8.276390   8.926375   9.218487  10.765738  10.459048
    42  H    5.863198   6.659922   6.847427   8.541246   8.556044
                   36         37         38         39         40
    36  H    0.000000
    37  H    2.005740   0.000000
    38  H    4.352722   2.378700   0.000000
    39  H    6.546791   4.638111   2.407627   0.000000
    40  H    8.377693   6.638556   4.706494   2.457687   0.000000
    41  H    8.487790   7.119741   5.862819   4.268042   2.482689
    42  H    6.879365   5.932119   5.509047   4.920530   4.256979
                   41         42
    41  H    0.000000
    42  H    2.422415   0.000000
 Stoichiometry    C26H16
 Framework group  C1[X(C26H16)]
 Deg. of freedom   120
 Full point group                 C1      NOp   1
 Largest Abelian subgroup         C1      NOp   1
 Largest concise Abelian subgroup C1      NOp   1
                         Standard orientation:                         
 ---------------------------------------------------------------------
 Center     Atomic      Atomic             Coordinates (Angstroms)
 Number     Number       Type             X           Y           Z
 ---------------------------------------------------------------------
      1          6           0       -5.315533   -1.447070   -0.062390
      2          6           0       -4.615266   -2.612478   -0.354426
      3          6           0       -3.222966   -2.581626   -0.439599
      4          6           0       -2.515166   -1.384285   -0.228454
      5          6           0       -1.113843   -1.322411   -0.293017
      6          6           0       -0.344899   -0.150251   -0.048241
      7          6           0       -1.069626    1.058966    0.112630
      8          6           0       -2.491036    0.978280    0.203366
      9          6           0       -3.217829   -0.212781    0.052016
     10          6           0       -4.621774   -0.252813    0.136894
     11          6           0       -0.369751    2.305911    0.143661
     12          6           0       -1.027135    3.556700    0.334965
     13          6           0       -0.363988    4.782078    0.307392
     14          6           0        0.993731    4.803627    0.085861
     15          6           0        1.671532    3.598810   -0.095144
     16          6           0        1.031101    2.324645   -0.069711
     17          6           0        1.752449    1.089931   -0.213389
     18          6           0        3.132394    1.072332   -0.525367
     19          6           0        3.887867   -0.093284   -0.576616
     20          6           0        3.322180   -1.301097   -0.211119
     21          6           0        4.144727   -2.440779   -0.143700
     22          6           0        3.652464   -3.653340    0.322773
     23          6           0        2.341170   -3.723329    0.755371
     24          6           0        1.519858   -2.592769    0.668324
     25          6           0        1.947083   -1.351814    0.119058
     26          6           0        1.102149   -0.160635   -0.042813
     27          1           0       -6.400067   -1.464121    0.004508
     28          1           0       -5.149807   -3.544763   -0.515744
     29          1           0       -2.689327   -3.501996   -0.666536
     30          1           0       -0.608374   -2.232877   -0.607998
     31          1           0       -3.079664    1.875787    0.367985
     32          1           0       -5.185108    0.652208    0.352781
     33          1           0       -2.096867    3.609532    0.513050
     34          1           0       -0.914065    5.706639    0.457911
     35          1           0        1.534686    5.745405    0.063022
     36          1           0        2.744983    3.686128   -0.234206
     37          1           0        3.670160    1.986092   -0.760438
     38          1           0        4.941317   -0.022965   -0.838308
     39          1           0        5.192599   -2.382693   -0.431851
     40          1           0        4.300748   -4.522595    0.384019
     41          1           0        1.951539   -4.645725    1.177619
     42          1           0        0.527904   -2.687161    1.104227
 ---------------------------------------------------------------------
 Rotational constants (GHZ):           0.2501412           0.1946677           0.1112981
 Standard basis: def2SVPP (5D, 7F)
 There are   422 symmetry adapted cartesian basis functions of A   symmetry.
 There are   396 symmetry adapted basis functions of A   symmetry.
   396 basis functions,   714 primitive gaussians,   422 cartesian basis functions
    86 alpha electrons       86 beta electrons
       nuclear repulsion energy      2027.4339039923 Hartrees.
 NAtoms=   42 NActive=   42 NUniq=   42 SFac= 1.00D+00 NAtFMM=   60 NAOKFM=F Big=F
 Integral buffers will be    131072 words long.
 Raffenetti 2 integral format.
 Two-electron integral symmetry is turned on.
 Nuclear repulsion after empirical dispersion term =     2027.3214378399 Hartrees.
 One-electron integrals computed using PRISM.
   1 Symmetry operations used in ECPInt.
 ECPInt:  NShTT=   17766 NPrTT=   71262 LenC2=   15919 LenP2D=   42534.
 LDataN:  DoStor=T MaxTD1= 4 Len=   56
 NBasis=   396 RedAO= T EigKep=  1.67D-04  NBF=   396
 NBsUse=   396 1.00D-06 EigRej= -1.00D+00 NBFU=   396
 ExpMin= 1.22D-01 ExpMax= 1.24D+03 ExpMxC= 1.86D+02 IAcc=3 IRadAn=         5 AccDes= 0.00D+00
 Harris functional with IExCor=  402 and IRadAn=       5 diagonalized for initial guess.
 HarFok:  IExCor=  402 AccDes= 0.00D+00 IRadAn=         5 IDoV= 1 UseB2=F ITyADJ=14
 ICtDFT=  3500011 ScaDFX=  1.000000  1.000000  1.000000  1.000000
 FoFCou: FMM=F IPFlag=           0 FMFlag=      100000 FMFlg1=           0
         NFxFlg=           0 DoJE=T BraDBF=F KetDBF=T FulRan=T
         wScrn=  0.000000 ICntrl=       500 IOpCl=  0 I1Cent=   200000004 NGrid=           0
         NMat0=    1 NMatS0=      1 NMatT0=    0 NMatD0=    1 NMtDS0=    0 NMtDT0=    0
 Petite list used in FoFCou.
 Requested convergence on RMS density matrix=1.00D-08 within 128 cycles.
 Requested convergence on MAX density matrix=1.00D-06.
 Requested convergence on             energy=1.00D-06.
 No special actions if energy rises.
 Integral accuracy reduced to 1.0D-05 until final iterations.
 Initial convergence to 1.0D-05 achieved.  Increase integral accuracy.
 SCF Done:  E(RB3LYP) =  -999.803596621     A.U. after   15 cycles
            NFock= 15  Conv=0.75D-08     -V/T= 2.0106

 **********************************************************************

            Population analysis using the SCF Density.

 **********************************************************************

 Orbital symmetries:
       Occupied  (A) (A) (A) (A) (A) (A) (A) (A) (A) (A) (A) (A)
                 (A) (A) (A) (A) (A) (A) (A) (A) (A) (A) (A) (A)
                 (A) (A) (A) (A) (A) (A) (A) (A) (A) (A) (A) (A)
                 (A) (A) (A) (A) (A) (A) (A) (A) (A) (A) (A) (A)
                 (A) (A) (A) (A) (A) (A) (A) (A) (A) (A) (A) (A)
                 (A) (A) (A) (A) (A) (A) (A) (A) (A) (A) (A) (A)
                 (A) (A) (A) (A) (A) (A) (A) (A) (A) (A) (A) (A)
                 (A) (A)
       Virtual   (A) (A) (A) (A) (A) (A) (A) (A) (A) (A) (A) (A)
                 (A) (A) (A) (A) (A) (A) (A) (A) (A) (A) (A) (A)
                 (A) (A) (A) (A) (A) (A) (A) (A) (A) (A) (A) (A)
                 (A) (A) (A) (A) (A) (A) (A) (A) (A) (A) (A) (A)
                 (A) (A) (A) (A) (A) (A) (A) (A) (A) (A) (A) (A)
                 (A) (A) (A) (A) (A) (A) (A) (A) (A) (A) (A) (A)
                 (A) (A) (A) (A) (A) (A) (A) (A) (A) (A) (A) (A)
                 (A) (A) (A) (A) (A) (A) (A) (A) (A) (A) (A) (A)
                 (A) (A) (A) (A) (A) (A) (A) (A) (A) (A) (A) (A)
                 (A) (A) (A) (A) (A) (A) (A) (A) (A) (A) (A) (A)
                 (A) (A) (A) (A) (A) (A) (A) (A) (A) (A) (A) (A)
                 (A) (A) (A) (A) (A) (A) (A) (A) (A) (A) (A) (A)
                 (A) (A) (A) (A) (A) (A) (A) (A) (A) (A) (A) (A)
                 (A) (A) (A) (A) (A) (A) (A) (A) (A) (A) (A) (A)
                 (A) (A) (A) (A) (A) (A) (A) (A) (A) (A) (A) (A)
                 (A) (A) (A) (A) (A) (A) (A) (A) (A) (A) (A) (A)
                 (A) (A) (A) (A) (A) (A) (A) (A) (A) (A) (A) (A)
                 (A) (A) (A) (A) (A) (A) (A) (A) (A) (A) (A) (A)
                 (A) (A) (A) (A) (A) (A) (A) (A) (A) (A) (A) (A)
                 (A) (A) (A) (A) (A) (A) (A) (A) (A) (A) (A) (A)
                 (A) (A) (A) (A) (A) (A) (A) (A) (A) (A) (A) (A)
                 (A) (A) (A) (A) (A) (A) (A) (A) (A) (A) (A) (A)
                 (A) (A) (A) (A) (A) (A) (A) (A) (A) (A) (A) (A)
                 (A) (A) (A) (A) (A) (A) (A) (A) (A) (A) (A) (A)
                 (A) (A) (A) (A) (A) (A) (A) (A) (A) (A) (A) (A)
                 (A) (A) (A) (A) (A) (A) (A) (A) (A) (A)
 The electronic state is 1-A.
 Alpha  occ. eigenvalues --  -10.20933 -10.20578 -10.20495 -10.20357 -10.20331
 Alpha  occ. eigenvalues --  -10.20310 -10.20218 -10.19398 -10.19354 -10.19305
 Alpha  occ. eigenvalues --  -10.19202 -10.19153 -10.19112 -10.19065 -10.19063
 Alpha  occ. eigenvalues --  -10.19061 -10.19017 -10.18977 -10.18953 -10.18937
 Alpha  occ. eigenvalues --  -10.18904 -10.18893 -10.18868 -10.18856 -10.18785
 Alpha  occ. eigenvalues --  -10.18767  -0.89257  -0.87299  -0.86202  -0.83018
 Alpha  occ. eigenvalues --   -0.81949  -0.78495  -0.77912  -0.76376  -0.75861
 Alpha  occ. eigenvalues --   -0.73426  -0.72502  -0.71280  -0.69697  -0.65367
 Alpha  occ. eigenvalues --   -0.63607  -0.62845  -0.61771  -0.60087  -0.59288
 Alpha  occ. eigenvalues --   -0.58972  -0.56696  -0.53522  -0.52963  -0.52179
 Alpha  occ. eigenvalues --   -0.50548  -0.49819  -0.48739  -0.47847  -0.46846
 Alpha  occ. eigenvalues --   -0.45804  -0.44787  -0.44342  -0.43741  -0.43244
 Alpha  occ. eigenvalues --   -0.42620  -0.42322  -0.41892  -0.41366  -0.41245
 Alpha  occ. eigenvalues --   -0.40006  -0.39613  -0.38796  -0.38649  -0.38296
 Alpha  occ. eigenvalues --   -0.36738  -0.35782  -0.35201  -0.34920  -0.34496
 Alpha  occ. eigenvalues --   -0.33695  -0.33082  -0.32427  -0.29921  -0.29412
 Alpha  occ. eigenvalues --   -0.27787  -0.27549  -0.24658  -0.23583  -0.21705
 Alpha  occ. eigenvalues --   -0.19646
 Alpha virt. eigenvalues --   -0.07571  -0.05392  -0.04097  -0.02493   0.00473
 Alpha virt. eigenvalues --    0.01182   0.02794   0.03427   0.06057   0.06453
 Alpha virt. eigenvalues --    0.06568   0.07800   0.08281   0.08960   0.09749
 Alpha virt. eigenvalues --    0.10267   0.10564   0.12079   0.12244   0.13359
 Alpha virt. eigenvalues --    0.13964   0.14076   0.15855   0.16503   0.17095
 Alpha virt. eigenvalues --    0.18183   0.19346   0.20764   0.21802   0.22206
 Alpha virt. eigenvalues --    0.23889   0.24456   0.25092   0.26338   0.26894
 Alpha virt. eigenvalues --    0.27408   0.27543   0.28133   0.28453   0.28952
 Alpha virt. eigenvalues --    0.29070   0.30203   0.30657   0.31334   0.31531
 Alpha virt. eigenvalues --    0.32041   0.32657   0.33627   0.33964   0.35142
 Alpha virt. eigenvalues --    0.35815   0.36037   0.36608   0.37044   0.38486
 Alpha virt. eigenvalues --    0.38898   0.39173   0.39807   0.40821   0.41527
 Alpha virt. eigenvalues --    0.41994   0.42715   0.43072   0.43715   0.44580
 Alpha virt. eigenvalues --    0.45197   0.45367   0.46172   0.46368   0.46537
 Alpha virt. eigenvalues --    0.47310   0.47594   0.47905   0.48011   0.48383
 Alpha virt. eigenvalues --    0.48690   0.48894   0.49738   0.50080   0.50565
 Alpha virt. eigenvalues --    0.51041   0.51870   0.52061   0.52496   0.52842
 Alpha virt. eigenvalues --    0.53737   0.54074   0.55081   0.55460   0.56318
 Alpha virt. eigenvalues --    0.57492   0.58042   0.58489   0.58932   0.59704
 Alpha virt. eigenvalues --    0.60781   0.61596   0.63036   0.64283   0.64596
 Alpha virt. eigenvalues --    0.65876   0.66265   0.66488   0.66761   0.67279
 Alpha virt. eigenvalues --    0.67579   0.68338   0.68374   0.68910   0.68970
 Alpha virt. eigenvalues --    0.69233   0.69746   0.69996   0.70649   0.71270
 Alpha virt. eigenvalues --    0.71590   0.72108   0.72888   0.73339   0.73674
 Alpha virt. eigenvalues --    0.74602   0.74694   0.74809   0.75520   0.75851
 Alpha virt. eigenvalues --    0.76365   0.76985   0.77941   0.78397   0.79296
 Alpha virt. eigenvalues --    0.79993   0.80384   0.80390   0.81067   0.81866
 Alpha virt. eigenvalues --    0.82719   0.82978   0.84574   0.84716   0.86407
 Alpha virt. eigenvalues --    0.86735   0.87633   0.89074   0.89959   0.90526
 Alpha virt. eigenvalues --    0.91593   0.92036   0.93996   0.96904   0.97036
 Alpha virt. eigenvalues --    1.00156   1.03813   1.07715   1.08860   1.09725
 Alpha virt. eigenvalues --    1.10952   1.11444   1.13489   1.14248   1.15319
 Alpha virt. eigenvalues --    1.16128   1.18232   1.20501   1.21087   1.23589
 Alpha virt. eigenvalues --    1.23730   1.24152   1.25367   1.26007   1.27285
 Alpha virt. eigenvalues --    1.28416   1.29008   1.29242   1.30445   1.31593
 Alpha virt. eigenvalues --    1.33303   1.34567   1.35795   1.37219   1.39629
 Alpha virt. eigenvalues --    1.40431   1.40630   1.42535   1.43458   1.44018
 Alpha virt. eigenvalues --    1.45725   1.46270   1.46857   1.47414   1.47668
 Alpha virt. eigenvalues --    1.48712   1.49291   1.49516   1.49992   1.50545
 Alpha virt. eigenvalues --    1.51695   1.52035   1.52577   1.54109   1.57707
 Alpha virt. eigenvalues --    1.65128   1.67681   1.68484   1.70458   1.72140
 Alpha virt. eigenvalues --    1.72650   1.73829   1.74299   1.74904   1.75963
 Alpha virt. eigenvalues --    1.76211   1.78244   1.79674   1.82270   1.82653
 Alpha virt. eigenvalues --    1.83175   1.83725   1.84140   1.84398   1.85183
 Alpha virt. eigenvalues --    1.85987   1.86703   1.88284   1.89072   1.91781
 Alpha virt. eigenvalues --    1.92473   1.92946   1.93855   1.95201   1.98893
 Alpha virt. eigenvalues --    1.99604   2.01785   2.02782   2.03394   2.05342
 Alpha virt. eigenvalues --    2.05858   2.07197   2.07883   2.08940   2.09177
 Alpha virt. eigenvalues --    2.10499   2.12642   2.13603   2.14187   2.14558
 Alpha virt. eigenvalues --    2.16514   2.18077   2.18462   2.20080   2.20233
 Alpha virt. eigenvalues --    2.21929   2.23661   2.24062   2.24939   2.25629
 Alpha virt. eigenvalues --    2.25887   2.27505   2.28779   2.29331   2.29515
 Alpha virt. eigenvalues --    2.31332   2.33045   2.34035   2.34448   2.36207
 Alpha virt. eigenvalues --    2.38019   2.39127   2.40611   2.43740   2.48102
 Alpha virt. eigenvalues --    2.48522   2.49858   2.50352   2.53451   2.55671
 Alpha virt. eigenvalues --    2.56053   2.56699   2.59016   2.59810   2.61176
 Alpha virt. eigenvalues --    2.62775   2.63707   2.63887   2.64335   2.65258
 Alpha virt. eigenvalues --    2.66481   2.67182   2.68132   2.69341   2.70123
 Alpha virt. eigenvalues --    2.71596   2.72249   2.75607   2.77612   2.79852
 Alpha virt. eigenvalues --    2.81802   2.83621   2.86493   2.89659   2.91917
 Alpha virt. eigenvalues --    2.93054   3.00489   3.04578   3.07253   3.27148
 Alpha virt. eigenvalues --    3.29860   3.37158   3.39155   3.48311   3.55492
          Condensed to atoms (all electrons):
               1          2          3          4          5          6
     1  C    5.238725   0.142595   0.149019  -0.163883  -0.002482   0.000255
     2  C    0.142595   5.242308   0.219886   0.147687   0.020113  -0.001084
     3  C    0.149019   0.219886   5.465187   0.202048  -0.159924   0.017224
     4  C   -0.163883   0.147687   0.202048   5.433948   0.258939   0.129439
     5  C   -0.002482   0.020113  -0.159924   0.258939   5.713723   0.256107
     6  C    0.000255  -0.001084   0.017224   0.129439   0.256107   5.550057
     7  C   -0.001024   0.000246  -0.001172  -0.144328   0.050128   0.128767
     8  C    0.020196  -0.002355   0.027526   0.017302  -0.155917   0.022833
     9  C    0.147990  -0.162409   0.049797  -0.054457   0.022505  -0.150312
    10  C    0.222307   0.148111  -0.178557   0.046818   0.027808  -0.001560
    11  C    0.000004  -0.000003   0.000090  -0.004558   0.027580  -0.037676
    12  C    0.000001  -0.000000   0.000001   0.000058  -0.000540   0.019634
    13  C    0.000000  -0.000000  -0.000000   0.000008  -0.000003   0.000752
    14  C   -0.000000  -0.000000   0.000000  -0.000001   0.000002  -0.000442
    15  C   -0.000000   0.000000  -0.000000   0.000001   0.000052  -0.001455
    16  C   -0.000000   0.000000  -0.000003  -0.000308  -0.000896  -0.125935
    17  C    0.000000  -0.000000   0.000006   0.000021   0.014656  -0.015781
    18  C    0.000000  -0.000000   0.000000  -0.000003  -0.000272   0.024766
    19  C   -0.000000   0.000000  -0.000000   0.000003  -0.000035  -0.004856
    20  C    0.000000  -0.000000   0.000001   0.000033  -0.000367   0.016286
    21  C    0.000000   0.000000  -0.000000  -0.000001   0.000019   0.000101
    22  C   -0.000000  -0.000000   0.000000   0.000002  -0.000038  -0.000156
    23  C    0.000000  -0.000000  -0.000010  -0.000071  -0.000119   0.001244
    24  C   -0.000000   0.000000  -0.000110   0.000608  -0.002713  -0.040767
    25  C   -0.000000  -0.000000  -0.000005   0.001179  -0.038775  -0.108416
    26  C   -0.000003   0.000008  -0.000556   0.018375  -0.132110   0.290705
    27  H    0.436454  -0.084929   0.015067  -0.001332   0.000053  -0.000002
    28  H   -0.084930   0.436749  -0.076851   0.015649  -0.000501   0.000007
    29  H    0.015510  -0.081988   0.434639  -0.076875  -0.022879   0.000476
    30  H    0.000017   0.000392  -0.018112  -0.070579   0.422150  -0.068719
    31  H    0.000348   0.000018  -0.000511   0.021435  -0.002818   0.020265
    32  H   -0.082267   0.015506  -0.002137   0.019251  -0.000369   0.000009
    33  H    0.000000  -0.000000  -0.000000  -0.000083   0.000073  -0.002032
    34  H    0.000000   0.000000   0.000000   0.000000  -0.000000   0.000008
    35  H    0.000000  -0.000000  -0.000000   0.000000   0.000000   0.000000
    36  H   -0.000000   0.000000  -0.000000   0.000000  -0.000001  -0.000015
    37  H    0.000000  -0.000000   0.000000  -0.000000   0.000008  -0.000084
    38  H    0.000000   0.000000   0.000000   0.000000   0.000001   0.000026
    39  H    0.000000   0.000000   0.000000  -0.000000   0.000000   0.000008
    40  H   -0.000000   0.000000   0.000000  -0.000000   0.000001   0.000000
    41  H    0.000000  -0.000000  -0.000002  -0.000003  -0.000002   0.000018
    42  H    0.000001  -0.000017   0.000387   0.002342   0.003792   0.003267
               7          8          9         10         11         12
     1  C   -0.001024   0.020196   0.147990   0.222307   0.000004   0.000001
     2  C    0.000246  -0.002355  -0.162409   0.148111  -0.000003  -0.000000
     3  C   -0.001172   0.027526   0.049797  -0.178557   0.000090   0.000001
     4  C   -0.144328   0.017302  -0.054457   0.046818  -0.004558   0.000058
     5  C    0.050128  -0.155917   0.022505   0.027808   0.027580  -0.000540
     6  C    0.128767   0.022833  -0.150312  -0.001560  -0.037676   0.019634
     7  C    5.535231   0.287367   0.123245   0.017608   0.215122  -0.150470
     8  C    0.287367   5.718417   0.233618  -0.158519  -0.150993  -0.026415
     9  C    0.123245   0.233618   5.441839   0.201421   0.029735   0.000684
    10  C    0.017608  -0.158519   0.201421   5.471148  -0.000503  -0.000069
    11  C    0.215122  -0.150993   0.029735  -0.000503   5.638928   0.246233
    12  C   -0.150470  -0.026415   0.000684  -0.000069   0.246233   5.448211
    13  C    0.027520   0.000512  -0.000169  -0.000001   0.137150   0.222431
    14  C   -0.005672   0.000071   0.000012   0.000000  -0.177737   0.153359
    15  C    0.027356  -0.000485  -0.000006   0.000000   0.038257  -0.178344
    16  C   -0.040330   0.020302   0.000779   0.000011   0.141241   0.029906
    17  C   -0.111667  -0.001510  -0.000257  -0.000004  -0.039311   0.026691
    18  C   -0.001028   0.000058   0.000001  -0.000000   0.021432  -0.000466
    19  C   -0.000187   0.000001  -0.000001   0.000000   0.000306  -0.000002
    20  C   -0.000019   0.000002   0.000000   0.000000  -0.000238   0.000000
    21  C   -0.000000  -0.000000   0.000000  -0.000000   0.000003  -0.000000
    22  C   -0.000002   0.000000  -0.000000   0.000000  -0.000000   0.000000
    23  C    0.000044  -0.000001   0.000004  -0.000000   0.000001  -0.000000
    24  C   -0.000904   0.000038  -0.000086   0.000001  -0.000123   0.000000
    25  C    0.012273  -0.000112  -0.000064   0.000002  -0.002423   0.000058
    26  C   -0.019290   0.023175  -0.003794   0.000083  -0.122834  -0.001366
    27  H    0.000006  -0.000527   0.015663  -0.076626   0.000000  -0.000000
    28  H   -0.000002   0.000050  -0.001381   0.015120  -0.000000   0.000000
    29  H   -0.000011  -0.000327   0.019147  -0.002150  -0.000000   0.000000
    30  H    0.017281  -0.002206   0.019866  -0.000457  -0.000111   0.000010
    31  H   -0.050123   0.416404  -0.083391  -0.019004  -0.046504   0.011773
    32  H    0.000329  -0.024284  -0.075269   0.433112  -0.000039   0.000003
    33  H   -0.048488   0.011345   0.002632  -0.000056  -0.042114   0.419317
    34  H   -0.000287   0.000003  -0.000002  -0.000000   0.015713  -0.075825
    35  H    0.000041  -0.000000  -0.000000  -0.000000  -0.001472   0.015876
    36  H   -0.000123   0.000007  -0.000000   0.000000   0.020642  -0.002285
    37  H   -0.000066  -0.000000   0.000000  -0.000000  -0.001605   0.000060
    38  H   -0.000001   0.000000   0.000000  -0.000000   0.000010  -0.000000
    39  H   -0.000000   0.000000   0.000000  -0.000000   0.000000  -0.000000
    40  H    0.000000  -0.000000   0.000000   0.000000   0.000000   0.000000
    41  H    0.000000  -0.000000   0.000000   0.000000   0.000000  -0.000000
    42  H   -0.000713   0.000059  -0.000238  -0.000002  -0.000043   0.000000
              13         14         15         16         17         18
     1  C    0.000000  -0.000000  -0.000000  -0.000000   0.000000   0.000000
     2  C   -0.000000  -0.000000   0.000000   0.000000  -0.000000  -0.000000
     3  C   -0.000000   0.000000  -0.000000  -0.000003   0.000006   0.000000
     4  C    0.000008  -0.000001   0.000001  -0.000308   0.000021  -0.000003
     5  C   -0.000003   0.000002   0.000052  -0.000896   0.014656  -0.000272
     6  C    0.000752  -0.000442  -0.001455  -0.125935  -0.015781   0.024766
     7  C    0.027520  -0.005672   0.027356  -0.040330  -0.111667  -0.001028
     8  C    0.000512   0.000071  -0.000485   0.020302  -0.001510   0.000058
     9  C   -0.000169   0.000012  -0.000006   0.000779  -0.000257   0.000001
    10  C   -0.000001   0.000000   0.000000   0.000011  -0.000004  -0.000000
    11  C    0.137150  -0.177737   0.038257   0.141241  -0.039311   0.021432
    12  C    0.222431   0.153359  -0.178344   0.029906   0.026691  -0.000466
    13  C    5.230617   0.152999   0.154425  -0.177699  -0.005696   0.000036
    14  C    0.152999   5.227792   0.223791   0.137777   0.026815   0.000778
    15  C    0.154425   0.223791   5.446606   0.248069  -0.149841  -0.027566
    16  C   -0.177699   0.137777   0.248069   5.609867   0.234587  -0.137635
    17  C   -0.005696   0.026815  -0.149841   0.234587   5.542411   0.201223
    18  C    0.000036   0.000778  -0.027566  -0.137635   0.201223   5.472426
    19  C    0.000011  -0.000139   0.001579   0.024485   0.126166   0.228051
    20  C   -0.000001   0.000010  -0.000134  -0.003177  -0.149842   0.142905
    21  C    0.000000  -0.000000  -0.000002   0.000045  -0.000998   0.020008
    22  C   -0.000000   0.000000   0.000000  -0.000000   0.000262  -0.001724
    23  C    0.000000   0.000000  -0.000000  -0.000002  -0.000420   0.000363
    24  C    0.000000  -0.000000   0.000006   0.000110   0.017831  -0.003898
    25  C    0.000000  -0.000003  -0.000098   0.023025   0.008976  -0.126646
    26  C   -0.000358   0.000649   0.016827  -0.032823   0.260790   0.002816
    27  H   -0.000000   0.000000  -0.000000   0.000000  -0.000000   0.000000
    28  H    0.000000  -0.000000   0.000000  -0.000000   0.000000  -0.000000
    29  H    0.000000  -0.000000  -0.000000  -0.000000   0.000001   0.000000
    30  H   -0.000000   0.000000  -0.000001  -0.000076  -0.000696   0.000086
    31  H    0.001765  -0.000111   0.000060  -0.001550  -0.000074  -0.000000
    32  H   -0.000000   0.000000  -0.000000   0.000001  -0.000000  -0.000000
    33  H   -0.085839   0.017372  -0.002340   0.020623  -0.000080   0.000006
    34  H    0.437309  -0.088119   0.015834  -0.001426   0.000042  -0.000000
    35  H   -0.088284   0.437796  -0.075957   0.015766  -0.000269   0.000002
    36  H    0.017389  -0.084444   0.420073  -0.046811  -0.046144   0.012120
    37  H   -0.000125   0.001994   0.009593  -0.045447  -0.052544   0.422189
    38  H    0.000000  -0.000002   0.000009  -0.000323   0.016939  -0.075227
    39  H    0.000000  -0.000000  -0.000000  -0.000000  -0.000090   0.001307
    40  H    0.000000  -0.000000  -0.000000   0.000000  -0.000001   0.000011
    41  H   -0.000000  -0.000000   0.000000  -0.000000   0.000001   0.000001
    42  H   -0.000000   0.000000   0.000000   0.000047  -0.000478  -0.000051
              19         20         21         22         23         24
     1  C   -0.000000   0.000000   0.000000  -0.000000   0.000000  -0.000000
     2  C    0.000000  -0.000000   0.000000  -0.000000  -0.000000   0.000000
     3  C   -0.000000   0.000001  -0.000000   0.000000  -0.000010  -0.000110
     4  C    0.000003   0.000033  -0.000001   0.000002  -0.000071   0.000608
     5  C   -0.000035  -0.000367   0.000019  -0.000038  -0.000119  -0.002713
     6  C   -0.004856   0.016286   0.000101  -0.000156   0.001244  -0.040767
     7  C   -0.000187  -0.000019  -0.000000  -0.000002   0.000044  -0.000904
     8  C    0.000001   0.000002  -0.000000   0.000000  -0.000001   0.000038
     9  C   -0.000001   0.000000   0.000000  -0.000000   0.000004  -0.000086
    10  C    0.000000   0.000000  -0.000000   0.000000  -0.000000   0.000001
    11  C    0.000306  -0.000238   0.000003  -0.000000   0.000001  -0.000123
    12  C   -0.000002   0.000000  -0.000000   0.000000  -0.000000   0.000000
    13  C    0.000011  -0.000001   0.000000  -0.000000   0.000000   0.000000
    14  C   -0.000139   0.000010  -0.000000   0.000000   0.000000  -0.000000
    15  C    0.001579  -0.000134  -0.000002   0.000000  -0.000000   0.000006
    16  C    0.024485  -0.003177   0.000045  -0.000000  -0.000002   0.000110
    17  C    0.126166  -0.149842  -0.000998   0.000262  -0.000420   0.017831
    18  C    0.228051   0.142905   0.020008  -0.001724   0.000363  -0.003898
    19  C    5.472705   0.178002  -0.160462   0.023184  -0.002150   0.031208
    20  C    0.178002   5.382514   0.225452   0.145324  -0.160227   0.046995
    21  C   -0.160462   0.225452   5.466849   0.198734   0.145607  -0.180235
    22  C    0.023184   0.145324   0.198734   5.238928   0.159414   0.143448
    23  C   -0.002150  -0.160227   0.145607   0.159414   5.203183   0.261694
    24  C    0.031208   0.046995  -0.180235   0.143448   0.261694   5.442732
    25  C    0.015666   0.113111   0.042526  -0.148768   0.118239   0.235232
    26  C   -0.142890   0.015493   0.023918  -0.003601   0.014258  -0.127137
    27  H   -0.000000   0.000000  -0.000000  -0.000000   0.000000   0.000000
    28  H    0.000000  -0.000000   0.000000  -0.000000   0.000000   0.000000
    29  H   -0.000000  -0.000000   0.000000  -0.000000   0.000015  -0.000083
    30  H   -0.000076  -0.000726   0.000093  -0.000324   0.003519   0.004224
    31  H    0.000000  -0.000000   0.000000   0.000000  -0.000000   0.000001
    32  H    0.000000  -0.000000  -0.000000   0.000000   0.000000  -0.000000
    33  H   -0.000000   0.000000   0.000000  -0.000000   0.000000  -0.000000
    34  H   -0.000000   0.000000  -0.000000   0.000000   0.000000  -0.000000
    35  H   -0.000002   0.000000  -0.000000  -0.000000  -0.000000   0.000000
    36  H    0.002091  -0.000127   0.000000   0.000000   0.000000   0.000001
    37  H   -0.078112   0.017913  -0.000688   0.000016  -0.000000   0.000021
    38  H    0.442048  -0.091164  -0.019731   0.001145  -0.000091  -0.000331
    39  H   -0.023532  -0.080149   0.442296  -0.082881   0.016324  -0.002376
    40  H   -0.000556   0.015886  -0.079253   0.436464  -0.084880   0.015224
    41  H    0.000018  -0.001792   0.015886  -0.087592   0.438848  -0.076004
    42  H   -0.000292   0.016703  -0.001510   0.015118  -0.071328   0.424865
              25         26         27         28         29         30
     1  C   -0.000000  -0.000003   0.436454  -0.084930   0.015510   0.000017
     2  C   -0.000000   0.000008  -0.084929   0.436749  -0.081988   0.000392
     3  C   -0.000005  -0.000556   0.015067  -0.076851   0.434639  -0.018112
     4  C    0.001179   0.018375  -0.001332   0.015649  -0.076875  -0.070579
     5  C   -0.038775  -0.132110   0.000053  -0.000501  -0.022879   0.422150
     6  C   -0.108416   0.290705  -0.000002   0.000007   0.000476  -0.068719
     7  C    0.012273  -0.019290   0.000006  -0.000002  -0.000011   0.017281
     8  C   -0.000112   0.023175  -0.000527   0.000050  -0.000327  -0.002206
     9  C   -0.000064  -0.003794   0.015663  -0.001381   0.019147   0.019866
    10  C    0.000002   0.000083  -0.076626   0.015120  -0.002150  -0.000457
    11  C   -0.002423  -0.122834   0.000000  -0.000000  -0.000000  -0.000111
    12  C    0.000058  -0.001366  -0.000000   0.000000   0.000000   0.000010
    13  C    0.000000  -0.000358  -0.000000   0.000000   0.000000  -0.000000
    14  C   -0.000003   0.000649   0.000000  -0.000000  -0.000000   0.000000
    15  C   -0.000098   0.016827  -0.000000   0.000000  -0.000000  -0.000001
    16  C    0.023025  -0.032823   0.000000  -0.000000  -0.000000  -0.000076
    17  C    0.008976   0.260790  -0.000000   0.000000   0.000001  -0.000696
    18  C   -0.126646   0.002816   0.000000  -0.000000   0.000000   0.000086
    19  C    0.015666  -0.142890  -0.000000   0.000000  -0.000000  -0.000076
    20  C    0.113111   0.015493   0.000000  -0.000000  -0.000000  -0.000726
    21  C    0.042526   0.023918  -0.000000   0.000000   0.000000   0.000093
    22  C   -0.148768  -0.003601  -0.000000  -0.000000  -0.000000  -0.000324
    23  C    0.118239   0.014258   0.000000   0.000000   0.000015   0.003519
    24  C    0.235232  -0.127137   0.000000   0.000000  -0.000083   0.004224
    25  C    5.459105   0.296417   0.000000  -0.000000  -0.000004   0.002651
    26  C    0.296417   5.579204  -0.000000   0.000000  -0.000030  -0.023237
    27  H    0.000000  -0.000000   0.669185  -0.012364  -0.000319  -0.000001
    28  H   -0.000000   0.000000  -0.012364   0.668877  -0.012352  -0.000012
    29  H   -0.000004  -0.000030  -0.000319  -0.012352   0.676868   0.009163
    30  H    0.002651  -0.023237  -0.000001  -0.000012   0.009163   0.659642
    31  H    0.000007  -0.000029  -0.000009  -0.000001   0.000013   0.000011
    32  H    0.000000   0.000001  -0.012396  -0.000320   0.000037   0.000012
    33  H   -0.000001  -0.000030   0.000000  -0.000000  -0.000000   0.000001
    34  H    0.000000  -0.000000   0.000000  -0.000000   0.000000   0.000000
    35  H   -0.000000   0.000007  -0.000000  -0.000000   0.000000  -0.000000
    36  H    0.000064  -0.001790   0.000000   0.000000   0.000000  -0.000000
    37  H   -0.001784   0.018781   0.000000   0.000000   0.000000   0.000001
    38  H    0.016092  -0.001751   0.000000  -0.000000   0.000000  -0.000000
    39  H    0.016325  -0.000087   0.000000  -0.000000   0.000000  -0.000001
    40  H   -0.001208   0.000043  -0.000000  -0.000000   0.000000  -0.000001
    41  H    0.015807  -0.000229  -0.000000  -0.000000   0.000001   0.000114
    42  H   -0.066493  -0.020180  -0.000000   0.000000   0.000148  -0.005251
              31         32         33         34         35         36
     1  C    0.000348  -0.082267   0.000000   0.000000   0.000000  -0.000000
     2  C    0.000018   0.015506  -0.000000   0.000000  -0.000000   0.000000
     3  C   -0.000511  -0.002137  -0.000000   0.000000  -0.000000  -0.000000
     4  C    0.021435   0.019251  -0.000083   0.000000   0.000000   0.000000
     5  C   -0.002818  -0.000369   0.000073  -0.000000   0.000000  -0.000001
     6  C    0.020265   0.000009  -0.002032   0.000008   0.000000  -0.000015
     7  C   -0.050123   0.000329  -0.048488  -0.000287   0.000041  -0.000123
     8  C    0.416404  -0.024284   0.011345   0.000003  -0.000000   0.000007
     9  C   -0.083391  -0.075269   0.002632  -0.000002  -0.000000  -0.000000
    10  C   -0.019004   0.433112  -0.000056  -0.000000  -0.000000   0.000000
    11  C   -0.046504  -0.000039  -0.042114   0.015713  -0.001472   0.020642
    12  C    0.011773   0.000003   0.419317  -0.075825   0.015876  -0.002285
    13  C    0.001765  -0.000000  -0.085839   0.437309  -0.088284   0.017389
    14  C   -0.000111   0.000000   0.017372  -0.088119   0.437796  -0.084444
    15  C    0.000060  -0.000000  -0.002340   0.015834  -0.075957   0.420073
    16  C   -0.001550   0.000001   0.020623  -0.001426   0.015766  -0.046811
    17  C   -0.000074  -0.000000  -0.000080   0.000042  -0.000269  -0.046144
    18  C   -0.000000  -0.000000   0.000006  -0.000000   0.000002   0.012120
    19  C    0.000000   0.000000  -0.000000  -0.000000  -0.000002   0.002091
    20  C   -0.000000  -0.000000   0.000000   0.000000   0.000000  -0.000127
    21  C    0.000000  -0.000000   0.000000  -0.000000  -0.000000   0.000000
    22  C    0.000000   0.000000  -0.000000   0.000000  -0.000000   0.000000
    23  C   -0.000000   0.000000   0.000000   0.000000  -0.000000   0.000000
    24  C    0.000001  -0.000000  -0.000000  -0.000000   0.000000   0.000001
    25  C    0.000007   0.000000  -0.000001   0.000000  -0.000000   0.000064
    26  C   -0.000029   0.000001  -0.000030  -0.000000   0.000007  -0.001790
    27  H   -0.000009  -0.012396   0.000000   0.000000  -0.000000   0.000000
    28  H   -0.000001  -0.000320  -0.000000  -0.000000  -0.000000   0.000000
    29  H    0.000013   0.000037  -0.000000   0.000000   0.000000   0.000000
    30  H    0.000011   0.000012   0.000001   0.000000  -0.000000  -0.000000
    31  H    0.694131   0.010037  -0.000867   0.000045  -0.000000   0.000001
    32  H    0.010037   0.678471  -0.000038   0.000000   0.000000   0.000000
    33  H   -0.000867  -0.000038   0.681713  -0.014005  -0.000406   0.000013
    34  H    0.000045   0.000000  -0.014005   0.674506  -0.012112  -0.000404
    35  H   -0.000000   0.000000  -0.000406  -0.012112   0.674018  -0.014102
    36  H    0.000001   0.000000   0.000013  -0.000404  -0.014102   0.683312
    37  H   -0.000000   0.000000   0.000001  -0.000000   0.000044  -0.001751
    38  H   -0.000000  -0.000000   0.000000  -0.000000  -0.000000   0.000055
    39  H   -0.000000  -0.000000  -0.000000  -0.000000  -0.000000   0.000000
    40  H    0.000000   0.000000  -0.000000  -0.000000  -0.000000  -0.000000
    41  H   -0.000000   0.000000   0.000000  -0.000000   0.000000   0.000000
    42  H   -0.000000  -0.000000  -0.000000  -0.000000   0.000000   0.000000
              37         38         39         40         41         42
     1  C    0.000000   0.000000   0.000000  -0.000000   0.000000   0.000001
     2  C   -0.000000   0.000000   0.000000   0.000000  -0.000000  -0.000017
     3  C    0.000000   0.000000   0.000000   0.000000  -0.000002   0.000387
     4  C   -0.000000   0.000000  -0.000000  -0.000000  -0.000003   0.002342
     5  C    0.000008   0.000001   0.000000   0.000001  -0.000002   0.003792
     6  C   -0.000084   0.000026   0.000008   0.000000   0.000018   0.003267
     7  C   -0.000066  -0.000001  -0.000000   0.000000   0.000000  -0.000713
     8  C   -0.000000   0.000000   0.000000  -0.000000  -0.000000   0.000059
     9  C    0.000000   0.000000   0.000000   0.000000   0.000000  -0.000238
    10  C   -0.000000  -0.000000  -0.000000   0.000000   0.000000  -0.000002
    11  C   -0.001605   0.000010   0.000000   0.000000   0.000000  -0.000043
    12  C    0.000060  -0.000000  -0.000000   0.000000  -0.000000   0.000000
    13  C   -0.000125   0.000000   0.000000   0.000000  -0.000000  -0.000000
    14  C    0.001994  -0.000002  -0.000000  -0.000000  -0.000000   0.000000
    15  C    0.009593   0.000009  -0.000000  -0.000000   0.000000   0.000000
    16  C   -0.045447  -0.000323  -0.000000   0.000000  -0.000000   0.000047
    17  C   -0.052544   0.016939  -0.000090  -0.000001   0.000001  -0.000478
    18  C    0.422189  -0.075227   0.001307   0.000011   0.000001  -0.000051
[...]
 ,-0.00004060,-0.00039955,0.00000584,0.00000345,-0.00002190,0.00001874,
 0.00001685,0.00000938,0.00000481,-0.00002986,-0.00001594,-0.00007300,0
 .00016543,0.00011570,-0.00001465,-0.00030205,0.00027272,0.00113956,0.0
 0040047,0.00805707,0.00168274,-0.00000020,0.00412099,0.07867826,0.0111
 3259,-0.06084470,0.00868097,0.00196676,0.00125686,-0.00073406,0.001012
 98,-0.00231409,-0.00030455,-0.00001598,0.00003350,0.00001903,0.0000723
 8,-0.00010821,0.00054302,0.00032692,-0.00002226,0.00046119,-0.00298871
 ,0.00378909,-0.00038714,-0.00006282,-0.00041118,0.00000067,0.00000091,
 0.00000192,-0.00000068,-0.00000070,0.00000027,-0.00000032,0.00000241,0
 .00000467,-0.00000810,-0.00000085,-0.00002920,0.00000221,-0.00000152,-
 0.00000164,-0.00000037,0.00000066,0.00000084,-0.00000044,0.00000789,0.
 00000193,0.00000361,0.00000231,0.00000107,-0.00000253,0.00000395,-0.00
 000165,0.00006352,0.00002996,0.00000835,-0.00175015,0.00033905,-0.0048
 7274,-0.08776765,-0.01167983,0.05163779,-0.00000512,0.00000282,-0.0000
 0169,-0.00000716,0.00000142,-0.00000284,-0.00000398,-0.00001089,0.0000
 0051,0.00000234,-0.00000287,0.00000508,0.00001692,0.00002698,-0.000042
 08,0.00005305,-0.00022599,0.00006391,-0.00007720,0.00003235,-0.0000127
 5,0.00000162,-0.00002864,0.00000271,0.00000005,-0.00000474,0.00000303,
 0.00000360,0.00000949,-0.00000362,0.00001527,-0.00001905,-0.00000661,0
 .00001785,-0.00000039,-0.00000547,-0.00000636,-0.00002612,0.00000498,-
 0.00001002,0.00000377,-0.00000118,-0.00003219,-0.00003021,0.00000877,0
 .00006689,0.00002360,0.00000506,0.00021363,0.00009769,-0.00012401,0.00
 014950,-0.00035647,-0.00008198,0.00027496,0.00233026,-0.00097958,-0.00
 935207,-0.00062294,0.00418183,-0.30343990,-0.04015725,0.08070692,-0.01
 155922,-0.00562935,0.00407676,0.00079407,0.00284636,0.00294037,0.00058
 582,0.00048092,-0.00037249,0.00194509,-0.00246614,0.00064832,-0.000491
 67,0.00048348,0.00023264,-0.00000513,-0.00000033,0.00000078,-0.0000043
 3,0.00000306,0.00000033,0.00000443,0.00000125,0.00000471,0.00001243,-0
 .00001768,0.00000566,-0.00001084,-0.00000492,-0.00000014,-0.00000064,-
 0.00000415,0.00000169,-0.00000427,0.00000040,0.00000165,-0.00000117,-0
 .00000476,0.00000229,0.00000356,-0.00000877,0.00000120,0.00000208,0.00
 000252,0.00000256,0.00000565,-0.00006032,0.00006409,0.00058185,-0.0006
 5874,-0.00021655,0.32073554,-0.00000011,0.00000178,-0.00000021,-0.0000
 0531,0.00000394,0.00000015,-0.00000287,-0.00001072,0.00000386,-0.00001
 181,0.00001531,0.00000569,0.00001993,-0.00001515,0.00004249,0.00002636
 ,-0.00038752,-0.00009255,-0.00011979,0.00001031,-0.00002040,0.00000312
 ,-0.00004082,0.00002234,0.00000581,0.00000038,-0.00000221,0.00000037,0
 .00000198,-0.00000254,-0.00000977,0.00001418,-0.00000476,0.00001566,0.
 00000196,-0.00000326,-0.00000384,-0.00001116,0.00000382,0.00000945,-0.
 00000197,-0.00000326,-0.00003216,-0.00001677,0.00000765,0.00011427,0.0
 0001382,-0.00001566,-0.00016009,0.00011645,0.00004367,0.00032047,0.000
 17006,-0.00010069,-0.00161936,0.00103544,0.00142456,-0.02675419,-0.000
 68024,0.00806106,-0.04028814,-0.06422110,0.00835146,0.02362510,0.00815
 515,-0.00722796,0.00151646,-0.00290081,-0.00304937,0.00029790,-0.00111
 087,-0.00019757,-0.00114655,-0.00441910,-0.00158016,-0.00138405,0.0003
 5249,0.00024077,-0.00000043,0.00000041,-0.00000040,-0.00000120,-0.0000
 0014,-0.00000074,-0.00000041,0.00000218,-0.00000277,0.00001348,0.00000
 003,-0.00002307,-0.00001364,-0.00000286,0.00000082,0.00000014,0.000000
 06,0.00000004,-0.00000029,0.00000195,-0.00000116,0.00000150,-0.0000003
 5,-0.00000026,-0.00000046,-0.00000367,0.00000005,0.00001222,-0.0000055
 7,-0.00000015,-0.00000786,-0.00000259,-0.00004577,0.00086907,-0.000413
 01,-0.00036128,0.04375431,0.06316990,0.00000441,-0.00000343,0.00000006
 ,0.00000300,0.00000476,-0.00000125,0.00000022,0.00000145,-0.00000317,-
 0.00000581,-0.00000611,-0.00000207,0.00000654,0.00007777,-0.00007179,0
 .00004439,-0.00009614,0.00021858,-0.00001585,-0.00000314,0.00001635,-0
 .00000054,-0.00001341,-0.00002348,0.00000583,0.00000400,0.00000778,-0.
 00000363,-0.00000355,0.00000054,-0.00001247,0.00000495,0.00000160,-0.0
 0000471,0.00000361,-0.00000240,-0.00000033,0.00000494,-0.00000215,0.00
 000509,0.00000188,-0.00000448,0.00001039,-0.00000145,-0.00000691,0.000
 02179,0.00001202,0.00002524,-0.00015000,0.00001723,-0.00004972,0.00007
 865,0.00020007,-0.00005136,-0.00117170,0.00004852,-0.00293227,-0.00335
 414,-0.00244597,0.00418546,0.07966807,0.00991665,-0.06165101,0.0121837
 4,0.00179718,0.00075803,0.00221824,-0.00383720,0.00614902,-0.00049624,
 0.00102248,-0.00011977,0.00237267,-0.00165144,0.00396827,-0.00012858,-
 0.00013831,0.00007775,0.00000200,0.00000051,0.00000068,0.00000099,-0.0
 0000103,0.00000114,-0.00000154,0.00000117,0.00000046,-0.00002977,-0.00
 003789,-0.00001153,-0.00000158,0.00000086,-0.00000170,0.00000087,0.000
 00168,0.00000013,0.00000183,0.00000065,0.00000040,0.00000095,0.0000023
 3,0.00000038,-0.00000101,0.00000373,0.00000201,-0.00000010,-0.00000355
 ,0.00000441,0.00006058,0.00002675,0.00016957,0.00011597,0.00012426,0.0
 0014788,-0.08958017,-0.00654438,0.05397253,-0.00000409,-0.00000789,0.0
 0000178,0.00000632,0.00000924,-0.00000310,-0.00001458,-0.00000816,-0.0
 0000036,0.00005913,-0.00001966,-0.00000320,-0.00001030,0.00000728,-0.0
 0005796,0.00002689,-0.00001529,-0.00003262,0.00001502,0.00003088,0.000
 00254,-0.00001871,-0.00001575,0.00000526,0.00000539,-0.00001767,0.0000
 0557,-0.00000356,0.00000646,-0.00000080,-0.00003249,0.00000627,-0.0000
 0529,0.00000589,-0.00000132,0.00000081,0.00000031,0.00000131,0.0000005
 4,0.00000999,-0.00000148,0.00000539,-0.00000256,-0.00000485,-0.0000024
 1,0.00003588,0.00002672,0.00001774,-0.00027608,-0.00000241,0.00012219,
 -0.00001378,0.00032550,-0.00016498,0.00062569,0.00024008,-0.00002424,-
 0.00102645,0.00206890,0.00383023,0.01075909,0.01708189,0.00172462,-0.0
 9926264,-0.10205996,-0.00138362,-0.00604666,-0.02779908,-0.00359817,-0
 .00395417,-0.00013467,0.00409801,-0.00039510,0.00079554,0.00015137,-0.
 00002745,-0.00021542,-0.00036497,-0.00000311,-0.00000049,0.00000013,-0
 .00000532,0.00000166,-0.00000025,0.00000550,-0.00000134,0.00000336,0.0
 0002181,-0.00002371,0.00005594,-0.00000372,-0.00000243,-0.00000080,-0.
 00000176,-0.00000221,0.00000091,-0.00000034,0.00000278,-0.00000015,-0.
 00000022,-0.00000237,-0.00000195,0.00000114,-0.00000138,0.00000037,0.0
 0000463,-0.00000338,-0.00000689,0.00001820,0.00008247,-0.00003241,0.00
 000144,-0.00001472,0.00005197,0.00034328,-0.00014930,-0.00190042,0.098
 84146,-0.00001174,0.00000039,-0.00000052,-0.00000428,0.00000067,-0.000
 00084,-0.00000893,-0.00001280,0.00000297,0.00002732,-0.00000914,0.0000
 0101,-0.00003635,-0.00001818,-0.00004884,0.00001187,0.00001512,0.00001
 577,-0.00003028,0.00001253,-0.00000974,-0.00000786,-0.00000146,0.00000
 193,-0.00000800,-0.00001248,0.00000375,0.00000475,0.00001368,-0.000002
 42,0.00000132,-0.00001356,0.00000113,0.00000330,-0.00000029,-0.0000017
 6,-0.00000311,-0.00001402,0.00000260,-0.00001097,0.00000552,-0.0000035
 6,0.00000246,-0.00002773,0.00000828,-0.00000357,0.00003670,-0.00000772
 ,0.00016828,0.00002814,-0.00011165,0.00028319,-0.00036435,0.00002206,-
 0.00096725,-0.00046852,0.00009706,0.00320304,-0.00074348,-0.00324990,-
 0.01176440,-0.01699641,-0.00080112,-0.10140127,-0.29165636,-0.02336657
 ,0.00058277,-0.00102028,-0.00140593,-0.00120715,0.00177911,-0.00038767
 ,0.00043720,0.00039051,0.00012282,0.00003653,0.00013818,0.00021128,-0.
 00000559,-0.00000054,-0.00000012,-0.00000556,0.00000336,-0.00000118,0.
 00000525,0.00000116,0.00000133,0.00001049,-0.00001553,0.00003012,-0.00
 000492,-0.00000504,-0.00000054,-0.00000159,-0.00000497,0.00000129,-0.0
 0000487,-0.00000057,0.00000122,-0.00000257,-0.00000547,0.00000321,0.00
 000335,-0.00000701,-0.00000013,-0.00001008,0.00001603,0.00000371,-0.00
 003121,-0.00010608,0.00003325,0.00003678,0.00002292,-0.00004720,0.0005
 1199,0.00087350,0.00114397,0.11008435,0.30788422,-0.00000992,0.0000093
 5,-0.00000292,-0.00000661,-0.00001376,0.00000048,0.00000570,-0.0000145
 6,0.00000570,-0.00003319,0.00001813,0.00001138,0.00009448,-0.00002359,
 0.00006348,0.00002207,-0.00009270,-0.00002386,-0.00002883,0.00002934,0
 .00002322,0.00003699,-0.00000934,-0.00000163,-0.00001786,0.00002207,-0
 .00001741,0.00001104,0.00000192,-0.00000131,0.00000862,-0.00002375,-0.
 00000683,-0.00000118,0.00000701,-0.00000205,0.00000814,-0.00000331,0.0
 0000024,-0.00000739,-0.00000300,0.00001825,-0.00000656,0.00001109,-0.0
 0000800,-0.00000493,-0.00002817,0.00006167,-0.00001616,0.00006071,0.00
 009098,-0.00000646,-0.00005404,-0.00052338,-0.00040925,-0.00053004,0.0
 0021564,0.00360536,-0.00287986,0.00655512,-0.00566273,-0.01085495,0.00
 351138,-0.00119101,-0.02383106,-0.04326615,0.00378685,0.00972535,0.004
 28031,0.00367297,-0.00096789,0.00376517,0.00041512,-0.00012221,-0.0007
 5451,-0.00029136,0.00012529,-0.00069716,0.00000057,0.00000087,0.000000
 52,-0.00000161,0.00000030,0.00000117,-0.00000068,0.00000237,0.00000135
 ,0.00001562,0.00002394,-0.00001701,-0.00000207,-0.00000118,0.00000257,
 0.00000045,0.00000032,-0.00000029,-0.00000092,-0.00000136,0.00000165,-
 0.00000139,-0.00000115,-0.00000439,0.00000013,-0.00000026,0.00000149,-
 0.00000575,-0.00000038,-0.00001501,-0.00001707,-0.00003683,-0.00000263
 ,0.00006283,0.00000343,0.00011781,-0.00162795,0.00140381,-0.00399731,-
 0.00094766,0.02697179,0.03270798,-0.00000249,-0.00001467,0.00000298,0.
 00000969,0.00001819,0.00000171,-0.00001979,-0.00001203,0.00000644,0.00
 004099,0.00001272,-0.00001133,-0.00006016,-0.00008001,-0.00006825,-0.0
 0003517,0.00002551,0.00013495,0.00001806,0.00003020,-0.00001586,-0.000
 03447,0.00000744,-0.00000467,0.00000937,-0.00002829,0.00000880,-0.0000
 0876,0.00000489,-0.00000043,0.00000440,0.00001507,0.00000506,-0.000006
 13,0.00000070,0.00000021,0.00000223,0.00001010,-0.00000284,0.00000869,
 -0.00000485,-0.00000192,-0.00000623,0.00000334,-0.00000408,0.00003172,
 -0.00004652,0.00000292,-0.00018684,-0.00004727,-0.00013705,0.00010644,
 0.00006988,0.00002522,0.00002797,0.00003090,-0.00032945,-0.00028917,-0
 .00058434,-0.00021171,-0.00375577,-0.00305467,0.00310932,-0.01050218,0
 .02300878,0.01243977,-0.13164182,0.10530830,0.07143164,0.00988936,-0.0
 1180364,-0.00611333,0.00030611,-0.00290382,0.00237005,0.00051134,-0.00
 047627,-0.00022909,0.00000359,0.00000180,-0.00000083,-0.00000013,-0.00
 000184,-0.00000104,-0.00000416,0.00000789,-0.00001385,-0.00001067,-0.0
 0003088,-0.00000199,-0.00000018,0.00000240,-0.00000040,0.00000038,0.00
 000325,-0.00000035,0.00000229,-0.00000051,0.00000009,0.00000102,0.0000
 0258,-0.00000040,-0.00000191,0.00000187,0.00000147,0.00000293,-0.00000
 324,0.00000210,0.00000888,0.00001631,0.00001533,0.00004234,-0.00004719
 ,-0.00001253,-0.00062427,0.00105671,0.00038964,0.00070718,0.00004272,-
 0.00164483,0.13528686,-0.00001887,0.00001411,-0.00000237,-0.00002719,0
 .00000920,0.00000602,-0.00000588,-0.00005560,0.00002936,-0.00002706,0.
 00002297,0.00001734,0.00001534,-0.00002840,0.00003561,0.00012348,0.000
 05842,0.00005073,-0.00006791,0.00000853,-0.00003228,0.00002776,-0.0000
 1315,0.00001465,-0.00001611,0.00000728,-0.00001149,0.00001762,0.000017
 84,-0.00000459,0.00003619,-0.00003474,0.00000494,0.00000477,0.00001000
 ,-0.00000926,-0.00000182,-0.00002718,0.00000750,-0.00000761,-0.0000027
 9,-0.00000456,-0.00005095,-0.00004551,0.00002704,0.00013718,-0.0000389
 2,0.00003080,0.00001527,-0.00042542,0.00004187,-0.00034404,-0.00018949
 ,0.00000485,0.00002667,0.00038623,0.00025608,-0.00062624,-0.00030135,0
 .00036226,-0.00182627,0.00130336,-0.00059110,-0.00460733,0.00768065,0.
 00322639,0.10388344,-0.20544478,-0.09281895,0.01665706,-0.01606120,-0.
 01317704,-0.00418371,-0.00320121,-0.00155288,0.00115478,0.00002588,-0.
 00059964,-0.00000259,0.00000199,-0.00000295,-0.00000824,0.00000056,-0.
 00000576,-0.00000055,0.00001284,-0.00002282,0.00008646,-0.00000082,-0.
 00001381,-0.00000667,-0.00000391,0.00000064,-0.00000046,-0.00000233,-0
 .00000134,-0.00000772,-0.00000619,0.00000216,-0.00000166,-0.00000464,0
 .00000202,0.00000101,-0.00001077,-0.00000026,-0.00000027,0.00000949,-0
 .00000020,0.00001098,-0.00001340,-0.00001275,0.00003421,-0.00002180,-0
 .00002136,-0.00035240,0.00028575,0.00003804,0.00093804,0.00042810,0.00
 068755,-0.11147139,0.21491530,-0.00001134,-0.00004483,0.00000822,0.000
 03644,0.00004816,-0.00000670,-0.00006953,-0.00003581,0.00000239,0.0001
 8465,0.00002533,-0.00003987,-0.00024132,-0.00017005,-0.00023130,0.0000
 2548,-0.00003468,0.00016877,0.00006825,0.00001327,-0.00002828,-0.00011
 314,0.00003236,-0.00001020,0.00002904,-0.00009310,0.00003762,-0.000025
 08,0.00002681,-0.00000415,-0.00004076,0.00000921,0.00000481,0.00000130
 ,-0.00000367,0.00000341,-0.00001223,-0.00000403,0.00000116,0.00000107,
 0.00001582,0.00000361,0.00002197,-0.00001118,-0.00001765,-0.00001700,0
 .00009601,-0.00003858,-0.00070688,0.00018345,-0.00031544,0.00058300,0.
 00037794,0.00001576,-0.00007029,-0.00054173,-0.00075745,-0.00038459,0.
 00124225,-0.00030083,0.00359819,-0.00032961,0.00375698,0.00285501,-0.0
 0850181,-0.00036875,0.07297992,-0.09224812,-0.09516089,0.00184404,-0.0
 0313038,0.00230906,0.00164638,-0.00047120,0.00726856,0.00014835,-0.000
 89591,0.00019450,0.00000053,0.00000245,-0.00000063,-0.00000686,0.00000
 069,0.00000057,-0.00000553,0.00001067,-0.00001151,-0.00004723,-0.00009
 685,0.00005996,-0.00000044,0.00000139,-0.00000176,-0.00000044,0.000001
 68,0.00000164,-0.00000158,-0.00000154,0.00000193,-0.00000099,-0.000000
 94,-0.00000019,0.00000186,0.00000015,0.00000223,-0.00000182,0.00000449
 ,0.00000125,0.00001306,-0.00000058,0.00003025,0.00001066,0.00001529,0.
 00002932,0.00032666,-0.00053774,0.00006352,-0.00139080,0.00087969,-0.0
 0225959,-0.07922264,0.10265132,0.08926379,0.00001019,-0.00003634,-0.00
 000106,-0.00000104,0.00005220,0.00001513,-0.00000272,0.00000796,-0.000
 02979,-0.00014897,-0.00038484,0.00001331,-0.00148878,-0.00071181,-0.00
 364322,0.00072128,-0.00100350,-0.00010569,0.00026365,0.00047568,0.0001
 6398,-0.00022161,-0.00008282,0.00000595,-0.00000052,-0.00007562,0.0002
 4184,-0.00002937,-0.00000099,-0.00000067,-0.00001783,0.00002447,0.0000
 0502,-0.00000180,-0.00000373,-0.00001091,0.00002061,0.00002167,-0.0000
 0685,-0.00000222,-0.00001800,0.00000232,0.00000235,0.00005451,-0.00000
 904,-0.00003698,-0.00006252,0.00000224,-0.00023153,0.00028436,0.000202
 25,0.00018278,0.00007201,-0.00005470,-0.00048840,-0.00056917,0.0001554
 2,0.00137981,0.00241160,0.00315817,0.00059669,-0.00007097,-0.00053941,
 0.00170103,-0.00289574,0.00182852,-0.00713053,-0.00007266,0.00539344,-
 0.29121402,-0.04179504,0.10830126,-0.01124143,-0.00274358,0.00490105,-
 0.00115385,-0.00134704,-0.00183020,-0.00000058,0.00000250,-0.00000077,
 -0.00000241,-0.00000064,-0.00000447,0.00000111,0.00002159,-0.00004524,
 -0.00130415,-0.00256653,-0.00199713,-0.00000552,-0.00000424,-0.0000527
 8,-0.00000611,0.00000137,0.00001074,0.00000562,0.00001108,-0.00000094,
 0.00000252,0.00000130,0.00000038,0.00000013,0.00000409,0.00000044,0.00
 001137,-0.00001544,0.00000190,0.00000183,0.00002531,-0.00000655,-0.000
 13671,0.00016049,-0.00002228,-0.00019391,0.00004934,-0.00033729,-0.000
 39113,0.00007458,0.00019648,0.00016844,0.00049269,-0.00200534,0.310382
 72,0.00001514,0.00004014,-0.00001519,-0.00000988,-0.00009099,0.0000059
 0,0.00016275,0.00007990,-0.00005535,-0.00046586,-0.00009999,0.00001829
 ,-0.00167511,-0.00028333,-0.00173291,0.00056901,-0.00091756,-0.0004735
 1,-0.00008177,-0.00018994,0.00030048,0.00006996,0.00005107,-0.00011779
 ,-0.00007938,0.00013638,0.00008430,0.00002101,-0.00004744,0.00002170,0
 .00002873,0.00000610,-0.00002623,-0.00002870,0.00000336,0.00001604,-0.
 00003220,-0.00000699,0.00000625,0.00000371,0.00004389,0.00000026,0.000
 02973,-0.00005192,-0.00001074,-0.00001884,0.00014529,-0.00006060,0.000
 25487,-0.00013813,0.00006920,-0.00005981,-0.00004021,0.00008346,0.0010
 0361,0.00065298,-0.00003764,0.00139715,-0.00353413,-0.00273314,0.00034
 264,-0.00057385,-0.00016225,-0.00181192,-0.00413907,-0.00286611,-0.028
 31054,-0.00097951,0.01060921,-0.04250711,-0.06295613,0.01330107,0.0217
 6914,0.00733935,-0.00839905,0.00004459,0.00088039,0.00077869,0.0000084
 8,-0.00000348,0.00000432,0.00001878,-0.00000385,0.00000560,0.00000305,
 -0.00004447,0.00004240,-0.00084355,-0.00028655,-0.00114242,0.00002012,
 0.00000393,-0.00001947,0.00000395,0.00000596,0.00000250,-0.00000205,-0
 .00001662,0.00000267,-0.00000294,0.00000666,-0.00000190,-0.00000300,0.
 00000409,0.00000097,-0.00001780,0.00001189,-0.00000166,-0.00003256,-0.
 00002370,-0.00001925,0.00019819,-0.00025123,-0.00019411,0.00008049,0.0
 0001738,0.00032554,-0.00120439,-0.00014555,0.00038875,0.00092989,0.000
 73509,0.00151534,0.05021244,0.06466078,-0.00004563,0.00005048,-0.00001
 849,-0.00002119,-0.00010345,0.00002255,0.00004870,-0.00010032,0.000029
 14,-0.00048275,0.00019884,0.00002830,-0.00085648,-0.00115484,-0.000555
 61,0.00059707,-0.00064741,-0.00011393,-0.00021304,0.00001340,0.0000774
 1,0.00021736,0.00010237,-0.00001653,-0.00009198,0.00018668,-0.00010008
 ,0.00005740,0.00002354,-0.00001472,0.00008845,-0.00010315,-0.00000479,
 -0.00003888,0.00007571,-0.00003141,0.00004615,-0.00003099,-0.00000446,
 -0.00007392,-0.00002395,0.00001082,-0.00000405,0.00006721,-0.00001410,
 -0.00001412,-0.00006218,0.00013073,-0.00066978,0.00058555,0.00019179,0
 .00030424,0.00013295,-0.00028688,0.00072010,0.00024493,0.00010143,0.00
 184322,-0.00288098,0.00339990,-0.00048642,-0.00106580,-0.00068449,0.00
 121931,-0.00194958,0.00663607,-0.00238752,-0.00154609,0.00540532,0.108
 48248,0.01204099,-0.08363334,0.01054821,0.00538971,0.00023929,-0.00105
 621,-0.00002531,-0.00230031,0.00001674,0.00000892,0.00000077,0.0000122
 9,-0.00000463,0.00000396,-0.00002727,0.00003751,-0.00002733,-0.0016631
 7,-0.00123978,-0.00235451,0.00000130,0.00000287,-0.00000299,0.00001260
 ,0.00001335,-0.00000183,-0.00000518,-0.00002156,0.00001121,-0.00000163
 ,0.00000665,0.00000246,-0.00000431,0.00000096,0.00000323,-0.00001843,0
 .00001601,0.00000672,-0.00000754,-0.00001051,0.00000840,0.00015735,-0.
 00019605,0.00003003,-0.00023341,0.00020610,-0.00083944,-0.00015566,-0.
 00011285,0.00016388,-0.00191884,0.00138828,-0.00367555,-0.11389553,-0.
 00951360,0.07817738\\0.00000064,-0.00000184,-0.00000006,0.00000207,0.0
 0000144,-0.00000006,-0.00000087,0.00000108,-0.00000002,-0.00000413,-0.
 00000920,0.00000386,0.00000327,0.00000648,-0.00000267,-0.00000260,-0.0
 0000849,0.00000024,-0.00000485,-0.00000258,-0.00000053,0.00000916,-0.0
 0000554,-0.00000014,0.00000274,0.00001190,-0.00000168,0.00000001,-0.00
 000049,0.00000005,0.00000802,0.00000750,-0.00000487,-0.00000354,0.0000
 0398,0.00000074,0.00000228,0.00000239,0.00000030,-0.00000228,-0.000001
 67,-0.00000103,0.00000514,-0.00000358,0.00000159,-0.00001678,-0.000000
 13,0.00000588,0.00000027,0.00000148,-0.00000103,0.00001029,0.00000988,
 -0.00000247,-0.00000142,-0.00000629,0.00000197,-0.00001001,-0.00000074
 ,-0.00000349,0.00000249,-0.00000122,0.00000063,-0.00000246,-0.00000407
 ,0.00000176,0.00000179,0.00000278,-0.00000147,-0.00000278,-0.00000148,
 -0.00000009,0.00001463,0.00001146,0.00000520,-0.00000045,-0.00001122,-
 0.00000214,0.00000023,0.00000221,0.00000031,-0.00000121,-0.00000200,-0
 .00000007,0.00000104,-0.00000120,0.00000011,0.00000011,-0.00000024,0.0
 0000235,0.00000003,-0.00000199,0.00000194,0.00000080,0.00000051,0.0000
 0046,-0.00000289,-0.00000042,-0.00000168,-0.00000018,-0.00000006,-0.00
 000222,-0.00000096,-0.00000030,0.00000243,-0.00000272,0.00000005,0.000
 00261,-0.00000342,0.00000140,-0.00000237,-0.00000063,0.00000177,-0.000
 00230,-0.00000092,0.00000016,-0.00000039,-0.00000164,0.00000071,-0.000
 00034,0.00000270,0.00000012,0.00000137,-0.00000098,-0.00000259,-0.0000
 0267\\\@
 The archive entry for this job was punched.


 THE ATTENTION SPAN OF A COMPUTER IS AS LONG
 AS ITS EXTENSION CORD.
 Job cpu time:       0 days  2 hours 18 minutes  8.4 seconds.
 Elapsed time:       0 days  0 hours 17 minutes 16.1 seconds.
 File lengths (MBytes):  RWF=    771 Int=      0 D2E=      0 Chk=     15 Scr=      1
 Normal termination of Gaussian 16 at Tue Oct  8 22:28:27 2024.
