 Entering Gaussian System, Link 0=g16
 Initial command:
 /opt/g16/l1.exe "/tmp/Gau-1250791.inp" -scrdir="/tmp/"
 Entering Link 1 = /opt/g16/l1.exe PID=   1250793.
  
 Copyright (c) 1988-2019, Gaussian, Inc.  All Rights Reserved.
  
 This is part of the Gaussian(R) 16 program.  It is based on
 the Gaussian(R) 09 system (copyright 2009, Gaussian, Inc.),
 the Gaussian(R) 03 system (copyright 2003, Gaussian, Inc.),
 the Gaussian(R) 98 system (copyright 1998, Gaussian, Inc.),
 the Gaussian(R) 94 system (copyright 1995, Gaussian, Inc.),
 the Gaussian 92(TM) system (copyright 1992, Gaussian, Inc.),
 the Gaussian 90(TM) system (copyright 1990, Gaussian, Inc.),
 the Gaussian 88(TM) system (copyright 1988, Gaussian, Inc.),
 the Gaussian 86(TM) system (copyright 1986, Carnegie Mellon
 University), and the Gaussian 82(TM) system (copyright 1983,
 Carnegie Mellon University). Gaussian is a federally registered
 trademark of Gaussian, Inc.
  
 This software contains proprietary and confidential information,
 including trade secrets, belonging to Gaussian, Inc.
  
 This software is provided under written license and may be
 used, copied, transmitted, or stored only in accord with that
 written license.
  
 The following legend is applicable only to US Government
 contracts under FAR:
  
                    RESTRICTED RIGHTS LEGEND
  
 Use, reproduction and disclosure by the US Government is
 subject to restrictions as set forth in subparagraphs (a)
 and (c) of the Commercial Computer Software - Restricted
 Rights clause in FAR 52.227-19.
  
 Gaussian, Inc.
 340 Quinnipiac St., Bldg. 40, Wallingford CT 06492
  
  
 ---------------------------------------------------------------
 Warning -- This program may not be used in any manner that
 competes with the business of Gaussian, Inc. or will provide
 assistance to any competitor of Gaussian, Inc.  The licensee
 of this program is prohibited from giving any competitor of
 Gaussian, Inc. access to this program.  By using this program,
 the user acknowledges that Gaussian, Inc. is engaged in the
 business of creating and licensing software in the field of
 computational chemistry and represents and warrants to the
 licensee that it is not a competitor of Gaussian, Inc. and that
 it will not use this program in any manner prohibited above.
 ---------------------------------------------------------------
  

 Cite this work as:
 Gaussian 16, Revision C.01,
 M. J. Frisch, G. W. Trucks, H. B. Schlegel, G. E. Scuseria, 
 M. A. Robb, J. R. Cheeseman, G. Scalmani, V. Barone, 
 G. A. Petersson, H. Nakatsuji, X. Li, M. Caricato, A. V. Marenich, 
 J. Bloino, B. G. Janesko, R. Gomperts, B. Mennucci, H. P. Hratchian, 
 J. V. Ortiz, A. F. Izmaylov, J. L. Sonnenberg, D. Williams-Young, 
 F. Ding, F. Lipparini, F. Egidi, J. Goings, B. Peng, A. Petrone, 
 T. Henderson, D. Ranasinghe, V. G. Zakrzewski, J. Gao, N. Rega, 
 G. Zheng, W. Liang, M. Hada, M. Ehara, K. Toyota, R. Fukuda, 
 J. Hasegawa, M. Ishida, T. Nakajima, Y. Honda, O. Kitao, H. Nakai, 
 T. Vreven, K. Throssell, J. A. Montgomery, Jr., J. E. Peralta, 
 F. Ogliaro, M. J. Bearpark, J. J. Heyd, E. N. Brothers, K. N. Kudin, 
 V. N. Staroverov, T. A. Keith, R. Kobayashi, J. Normand, 
 K. Raghavachari, A. P. Rendell, J. C. Burant, S. S. Iyengar, 
 J. Tomasi, M. Cossi, J. M. Millam, M. Klene, C. Adamo, R. Cammi, 
 J. W. Ochterski, R. L. Martin, K. Morokuma, O. Farkas, 
 J. B. Foresman, and D. J. Fox, Gaussian, Inc., Wallingford CT, 2019.
 
 ******************************************
 Gaussian 16:  ES64L-G16RevC.01  3-Jul-2019
                 8-Oct-2024 
 ******************************************
 %nprocshared=8
 Will use up to    8 processors via shared memory.
 %mem=8800MB
 ----------------------------------------------------------------------
 #N opt freq B3LYP/def2SVPP symm=veryloose em=gd3bj scale=0.961 press=0
 .987
 ----------------------------------------------------------------------
 1/18=20,19=15,26=3,38=1,113=-987000,114=961000/1,3;
 2/9=110,12=2,17=2,18=2,40=1/2;
 3/5=43,7=202,11=2,25=1,30=1,71=1,74=-5,124=41/1,2,3;
 4//1;
 5/5=2,38=5/2;
 6/7=2,8=2,9=2,10=2,28=1/1;
 7//1,2,3,16;
 1/18=20,19=15,26=3/3(2);
 2/9=110/2;
 99//99;
 2/9=110/2;
 3/5=43,7=202,11=2,25=1,30=1,71=1,74=-5,124=41/1,2,3;
 4/5=5,16=3,69=1/1;
 5/5=2,38=5/2;
 7//1,2,3,16;
 1/18=20,19=15,26=3/3(-5);
 2/9=110/2;
 6/7=2,8=2,9=2,10=2,19=2,28=1/1;
 99/9=1/99;
 ------------------------------------
 c1ccc2c(c1)ccc1ccc3ccc4ccccc4c3c12_2
 ------------------------------------
 Symbolic Z-matrix:
 Charge =  0 Multiplicity = 1
 C                    -2.7104   -3.2302   -0.651 
 C                    -1.383    -3.0369   -0.9926 
 C                    -0.803    -1.7733   -0.8384 
 C                    -1.5022   -0.6607   -0.306 
 C                    -2.8877   -0.8714   -0.0747 
 C                    -3.4628   -2.1475   -0.2087 
 C                    -3.7072    0.2069    0.24 
 C                    -3.1936    1.4953    0.2262 
 C                    -1.8301    1.7249    0.0184 
 C                    -1.4063    3.0452   -0.112 
 C                    -0.0761    3.3349   -0.3692 
 C                     0.8878    2.3305   -0.3242 
 C                     2.2199    2.6952   -0.5423 
 C                     3.2467    1.7752   -0.3895 
 C                     2.9731    0.5038    0.1024 
 C                     4.0448   -0.3573    0.3976 
 C                     3.8293   -1.5851    1.0141 
 C                     2.541    -1.947     1.3685 
 C                     1.4711   -1.1021    1.0552 
 C                     1.6287    0.1161    0.347 
 C                     0.5258    0.9894   -0.0326 
 C                    -0.9072    0.652    -0.0912 
 H                    -3.1706   -4.2075   -0.7652 
 H                    -0.7926   -3.8582   -1.3898 
 H                     0.2242   -1.6584   -1.1791 
 H                    -4.5196   -2.3008    0.0011 
 H                    -4.7719    0.0683    0.4129 
 H                    -3.881     2.3269    0.3701 
 H                    -2.1192    3.8665   -0.0757 
 H                     0.2051    4.3711   -0.5455 
 H                     2.4773    3.7141   -0.8257 
 H                     4.2694    2.0945   -0.5761 
 H                     5.0681   -0.0598    0.1769 
 H                     4.6673   -2.2342    1.251 
 H                     2.3578   -2.8782    1.8978 
 H                     0.4869   -1.4021    1.4099 
 

 GradGradGradGradGradGradGradGradGradGradGradGradGradGradGradGradGradGrad
 Berny optimization.
 Initialization pass.
                           ----------------------------
                           !    Initial Parameters    !
                           ! (Angstroms and Degrees)  !
 --------------------------                            --------------------------
 ! Name  Definition              Value          Derivative Info.                !
 --------------------------------------------------------------------------------
 ! R1    R(1,2)                  1.3842         estimate D2E/DX2                !
 ! R2    R(1,6)                  1.3907         estimate D2E/DX2                !
 ! R3    R(1,23)                 1.0863         estimate D2E/DX2                !
 ! R4    R(2,3)                  1.3989         estimate D2E/DX2                !
 ! R5    R(2,24)                 1.0867         estimate D2E/DX2                !
 ! R6    R(3,4)                  1.4178         estimate D2E/DX2                !
 ! R7    R(3,25)                 1.0883         estimate D2E/DX2                !
 ! R8    R(4,5)                  1.4204         estimate D2E/DX2                !
 ! R9    R(4,22)                 1.4572         estimate D2E/DX2                !
 ! R10   R(5,6)                  1.4061         estimate D2E/DX2                !
 ! R11   R(5,7)                  1.3904         estimate D2E/DX2                !
 ! R12   R(6,26)                 1.0883         estimate D2E/DX2                !
 ! R13   R(7,8)                  1.3871         estimate D2E/DX2                !
 ! R14   R(7,27)                 1.0875         estimate D2E/DX2                !
 ! R15   R(8,9)                  1.3982         estimate D2E/DX2                !
 ! R16   R(8,28)                 1.0885         estimate D2E/DX2                !
 ! R17   R(9,10)                 1.3928         estimate D2E/DX2                !
 ! R18   R(9,22)                 1.4195         estimate D2E/DX2                !
 ! R19   R(10,11)                1.3855         estimate D2E/DX2                !
 ! R20   R(10,29)                1.0882         estimate D2E/DX2                !
 ! R21   R(11,12)                1.3928         estimate D2E/DX2                !
 ! R22   R(11,30)                1.0881         estimate D2E/DX2                !
 ! R23   R(12,13)                1.3982         estimate D2E/DX2                !
 ! R24   R(12,21)                1.4194         estimate D2E/DX2                !
 ! R25   R(13,14)                1.3871         estimate D2E/DX2                !
 ! R26   R(13,31)                1.0885         estimate D2E/DX2                !
 ! R27   R(14,15)                1.3904         estimate D2E/DX2                !
 ! R28   R(14,32)                1.0875         estimate D2E/DX2                !
 ! R29   R(15,16)                1.4061         estimate D2E/DX2                !
 ! R30   R(15,20)                1.4204         estimate D2E/DX2                !
 ! R31   R(16,17)                1.3907         estimate D2E/DX2                !
 ! R32   R(16,33)                1.0883         estimate D2E/DX2                !
 ! R33   R(17,18)                1.3843         estimate D2E/DX2                !
 ! R34   R(17,34)                1.0861         estimate D2E/DX2                !
 ! R35   R(18,19)                1.3988         estimate D2E/DX2                !
 ! R36   R(18,35)                1.0867         estimate D2E/DX2                !
 ! R37   R(19,20)                1.4179         estimate D2E/DX2                !
 ! R38   R(19,36)                1.0883         estimate D2E/DX2                !
 ! R39   R(20,21)                1.4571         estimate D2E/DX2                !
 ! R40   R(21,22)                1.4734         estimate D2E/DX2                !
 ! A1    A(2,1,6)              119.2483         estimate D2E/DX2                !
 ! A2    A(2,1,23)             120.3955         estimate D2E/DX2                !
 ! A3    A(6,1,23)             120.3101         estimate D2E/DX2                !
 ! A4    A(1,2,3)              119.7713         estimate D2E/DX2                !
 ! A5    A(1,2,24)             120.3757         estimate D2E/DX2                !
 ! A6    A(3,2,24)             119.8497         estimate D2E/DX2                !
 ! A7    A(2,3,4)              123.0768         estimate D2E/DX2                !
 ! A8    A(2,3,25)             116.8846         estimate D2E/DX2                !
 ! A9    A(4,3,25)             120.011          estimate D2E/DX2                !
 ! A10   A(3,4,5)              115.2001         estimate D2E/DX2                !
 ! A11   A(3,4,22)             124.1189         estimate D2E/DX2                !
 ! A12   A(5,4,22)             120.5257         estimate D2E/DX2                !
 ! A13   A(4,5,6)              121.2024         estimate D2E/DX2                !
 ! A14   A(4,5,7)              119.7832         estimate D2E/DX2                !
 ! A15   A(6,5,7)              118.9677         estimate D2E/DX2                !
 ! A16   A(1,6,5)              121.0367         estimate D2E/DX2                !
 ! A17   A(1,6,26)             118.4915         estimate D2E/DX2                !
 ! A18   A(5,6,26)             120.4405         estimate D2E/DX2                !
 ! A19   A(5,7,8)              119.9905         estimate D2E/DX2                !
 ! A20   A(5,7,27)             120.9414         estimate D2E/DX2                !
 ! A21   A(8,7,27)             118.847          estimate D2E/DX2                !
 ! A22   A(7,8,9)              121.0034         estimate D2E/DX2                !
 ! A23   A(7,8,28)             118.327          estimate D2E/DX2                !
 ! A24   A(9,8,28)             120.666          estimate D2E/DX2                !
 ! A25   A(8,9,10)             117.7949         estimate D2E/DX2                !
 ! A26   A(8,9,22)             121.4254         estimate D2E/DX2                !
 ! A27   A(10,9,22)            120.7607         estimate D2E/DX2                !
 ! A28   A(9,10,11)            120.514          estimate D2E/DX2                !
 ! A29   A(9,10,29)            120.8651         estimate D2E/DX2                !
 ! A30   A(11,10,29)           118.5148         estimate D2E/DX2                !
 ! A31   A(10,11,12)           120.508          estimate D2E/DX2                !
 ! A32   A(10,11,30)           118.5123         estimate D2E/DX2                !
 ! A33   A(12,11,30)           120.8731         estimate D2E/DX2                !
 ! A34   A(11,12,13)           117.787          estimate D2E/DX2                !
 ! A35   A(11,12,21)           120.7635         estimate D2E/DX2                !
 ! A36   A(13,12,21)           121.4308         estimate D2E/DX2                !
 ! A37   A(12,13,14)           121.0011         estimate D2E/DX2                !
 ! A38   A(12,13,31)           120.6686         estimate D2E/DX2                !
 ! A39   A(14,13,31)           118.3265         estimate D2E/DX2                !
 ! A40   A(13,14,15)           119.9857         estimate D2E/DX2                !
 ! A41   A(13,14,32)           118.8483         estimate D2E/DX2                !
 ! A42   A(15,14,32)           120.9454         estimate D2E/DX2                !
 ! A43   A(14,15,16)           118.9645         estimate D2E/DX2                !
 ! A44   A(14,15,20)           119.7853         estimate D2E/DX2                !
 ! A45   A(16,15,20)           121.2035         estimate D2E/DX2                !
 ! A46   A(15,16,17)           121.0395         estimate D2E/DX2                !
 ! A47   A(15,16,33)           120.4426         estimate D2E/DX2                !
 ! A48   A(17,16,33)           118.4868         estimate D2E/DX2                !
 ! A49   A(16,17,18)           119.2432         estimate D2E/DX2                !
 ! A50   A(16,17,34)           120.3153         estimate D2E/DX2                !
 ! A51   A(18,17,34)           120.395          estimate D2E/DX2                !
 ! A52   A(17,18,19)           119.7732         estimate D2E/DX2                !
 ! A53   A(17,18,35)           120.3729         estimate D2E/DX2                !
 ! A54   A(19,18,35)           119.8506         estimate D2E/DX2                !
 ! A55   A(18,19,20)           123.0793         estimate D2E/DX2                !
 ! A56   A(18,19,36)           116.884          estimate D2E/DX2                !
 ! A57   A(20,19,36)           120.0088         estimate D2E/DX2                !
 ! A58   A(15,20,19)           115.1966         estimate D2E/DX2                !
 ! A59   A(15,20,21)           120.528          estimate D2E/DX2                !
 ! A60   A(19,20,21)           124.1198         estimate D2E/DX2                !
 ! A61   A(12,21,20)           115.2625         estimate D2E/DX2                !
 ! A62   A(12,21,22)           117.146          estimate D2E/DX2                !
 ! A63   A(20,21,22)           127.5387         estimate D2E/DX2                !
 ! A64   A(4,22,9)             115.2653         estimate D2E/DX2                !
 ! A65   A(4,22,21)            127.5392         estimate D2E/DX2                !
 ! A66   A(9,22,21)            117.1427         estimate D2E/DX2                !
 ! D1    D(6,1,2,3)              2.5585         estimate D2E/DX2                !
 ! D2    D(6,1,2,24)          -176.7716         estimate D2E/DX2                !
 ! D3    D(23,1,2,3)          -179.9067         estimate D2E/DX2                !
 ! D4    D(23,1,2,24)            0.7631         estimate D2E/DX2                !
 ! D5    D(2,1,6,5)             -1.4927         estimate D2E/DX2                !
 ! D6    D(2,1,6,26)           176.482          estimate D2E/DX2                !
 ! D7    D(23,1,6,5)          -179.0296         estimate D2E/DX2                !
 ! D8    D(23,1,6,26)           -1.0549         estimate D2E/DX2                !
 ! D9    D(1,2,3,4)              1.7933         estimate D2E/DX2                !
 ! D10   D(1,2,3,25)          -176.2911         estimate D2E/DX2                !
 ! D11   D(24,2,3,4)          -178.873          estimate D2E/DX2                !
 ! D12   D(24,2,3,25)            3.0427         estimate D2E/DX2                !
 ! D13   D(2,3,4,5)             -6.8023         estimate D2E/DX2                !
 ! D14   D(2,3,4,22)           177.7215         estimate D2E/DX2                !
 ! D15   D(25,3,4,5)           171.2245         estimate D2E/DX2                !
 ! D16   D(25,3,4,22)           -4.2517         estimate D2E/DX2                !
 ! D17   D(3,4,5,6)              7.7653         estimate D2E/DX2                !
 ! D18   D(3,4,5,7)           -169.7219         estimate D2E/DX2                !
 ! D19   D(22,4,5,6)          -176.5821         estimate D2E/DX2                !
 ! D20   D(22,4,5,7)             5.9307         estimate D2E/DX2                !
 ! D21   D(3,4,22,9)           159.9623         estimate D2E/DX2                !
 ! D22   D(3,4,22,21)          -17.2951         estimate D2E/DX2                !
 ! D23   D(5,4,22,9)           -15.2854         estimate D2E/DX2                !
 ! D24   D(5,4,22,21)          167.4572         estimate D2E/DX2                !
 ! D25   D(4,5,6,1)             -3.9452         estimate D2E/DX2                !
 ! D26   D(4,5,6,26)           178.1194         estimate D2E/DX2                !
 ! D27   D(7,5,6,1)            173.562          estimate D2E/DX2                !
 ! D28   D(7,5,6,26)            -4.3734         estimate D2E/DX2                !
 ! D29   D(4,5,7,8)              4.9698         estimate D2E/DX2                !
 ! D30   D(4,5,7,27)           179.5047         estimate D2E/DX2                !
 ! D31   D(6,5,7,8)           -172.5735         estimate D2E/DX2                !
 ! D32   D(6,5,7,27)             1.9614         estimate D2E/DX2                !
 ! D33   D(5,7,8,9)             -5.8525         estimate D2E/DX2                !
 ! D34   D(5,7,8,28)           173.459          estimate D2E/DX2                !
 ! D35   D(27,7,8,9)           179.4986         estimate D2E/DX2                !
 ! D36   D(27,7,8,28)           -1.1899         estimate D2E/DX2                !
 ! D37   D(7,8,9,10)           173.8999         estimate D2E/DX2                !
 ! D38   D(7,8,9,22)            -4.5253         estimate D2E/DX2                !
 ! D39   D(28,8,9,10)           -5.3955         estimate D2E/DX2                !
 ! D40   D(28,8,9,22)          176.1793         estimate D2E/DX2                !
 ! D41   D(8,9,10,11)         -177.5786         estimate D2E/DX2                !
 ! D42   D(8,9,10,29)           -1.3792         estimate D2E/DX2                !
 ! D43   D(22,9,10,11)           0.8576         estimate D2E/DX2                !
 ! D44   D(22,9,10,29)         177.057          estimate D2E/DX2                !
 ! D45   D(8,9,22,4)            14.6102         estimate D2E/DX2                !
 ! D46   D(8,9,22,21)         -167.8335         estimate D2E/DX2                !
 ! D47   D(10,9,22,4)         -163.7687         estimate D2E/DX2                !
 ! D48   D(10,9,22,21)          13.7877         estimate D2E/DX2                !
 ! D49   D(9,10,11,12)          -8.6399         estimate D2E/DX2                !
 ! D50   D(9,10,11,30)         175.0795         estimate D2E/DX2                !
 ! D51   D(29,10,11,12)        175.0727         estimate D2E/DX2                !
 ! D52   D(29,10,11,30)         -1.2079         estimate D2E/DX2                !
 ! D53   D(10,11,12,13)       -177.5836         estimate D2E/DX2                !
 ! D54   D(10,11,12,21)          0.8628         estimate D2E/DX2                !
 ! D55   D(30,11,12,13)         -1.3917         estimate D2E/DX2                !
 ! D56   D(30,11,12,21)        177.0547         estimate D2E/DX2                !
 ! D57   D(11,12,13,14)        173.9001         estimate D2E/DX2                !
 ! D58   D(11,12,13,31)         -5.3845         estimate D2E/DX2                !
 ! D59   D(21,12,13,14)         -4.5353         estimate D2E/DX2                !
 ! D60   D(21,12,13,31)        176.18           estimate D2E/DX2                !
 ! D61   D(11,12,21,20)       -163.7741         estimate D2E/DX2                !
 ! D62   D(11,12,21,22)         13.783          estimate D2E/DX2                !
 ! D63   D(13,12,21,20)         14.615          estimate D2E/DX2                !
 ! D64   D(13,12,21,22)       -167.8278         estimate D2E/DX2                !
 ! D65   D(12,13,14,15)         -5.8447         estimate D2E/DX2                !
 ! D66   D(12,13,14,32)        179.499          estimate D2E/DX2                !
 ! D67   D(31,13,14,15)        173.4563         estimate D2E/DX2                !
 ! D68   D(31,13,14,32)         -1.2            estimate D2E/DX2                !
 ! D69   D(13,14,15,16)       -172.5759         estimate D2E/DX2                !
 ! D70   D(13,14,15,20)          4.9689         estimate D2E/DX2                !
 ! D71   D(32,14,15,16)          1.9665         estimate D2E/DX2                !
 ! D72   D(32,14,15,20)        179.5113         estimate D2E/DX2                !
 ! D73   D(14,15,16,17)        173.5649         estimate D2E/DX2                !
 ! D74   D(14,15,16,33)         -4.3764         estimate D2E/DX2                !
 ! D75   D(20,15,16,17)         -3.9438         estimate D2E/DX2                !
 ! D76   D(20,15,16,33)        178.1149         estimate D2E/DX2                !
 ! D77   D(14,15,20,19)       -169.7227         estimate D2E/DX2                !
 ! D78   D(14,15,20,21)          5.9269         estimate D2E/DX2                !
 ! D79   D(16,15,20,19)          7.7658         estimate D2E/DX2                !
 ! D80   D(16,15,20,21)       -176.5846         estimate D2E/DX2                !
 ! D81   D(15,16,17,18)         -1.5003         estimate D2E/DX2                !
 ! D82   D(15,16,17,34)       -179.0275         estimate D2E/DX2                !
 ! D83   D(33,16,17,18)        176.4803         estimate D2E/DX2                !
 ! D84   D(33,16,17,34)         -1.0468         estimate D2E/DX2                !
 ! D85   D(16,17,18,19)          2.57           estimate D2E/DX2                !
 ! D86   D(16,17,18,35)       -176.7735         estimate D2E/DX2                !
 ! D87   D(34,17,18,19)       -179.9048         estimate D2E/DX2                !
 ! D88   D(34,17,18,35)          0.7516         estimate D2E/DX2                !
 ! D89   D(17,18,19,20)          1.7836         estimate D2E/DX2                !
 ! D90   D(17,18,19,36)       -176.2934         estimate D2E/DX2                !
 ! D91   D(35,18,19,20)       -178.8694         estimate D2E/DX2                !
 ! D92   D(35,18,19,36)          3.0536         estimate D2E/DX2                !
 ! D93   D(18,19,20,15)         -6.7988         estimate D2E/DX2                !
 ! D94   D(18,19,20,21)        177.7281         estimate D2E/DX2                !
 ! D95   D(36,19,20,15)        171.2205         estimate D2E/DX2                !
 ! D96   D(36,19,20,21)         -4.2526         estimate D2E/DX2                !
 ! D97   D(15,20,21,12)        -15.2832         estimate D2E/DX2                !
 ! D98   D(15,20,21,22)        167.4585         estimate D2E/DX2                !
 ! D99   D(19,20,21,12)        159.961          estimate D2E/DX2                !
 ! D100  D(19,20,21,22)        -17.2974         estimate D2E/DX2                !
 ! D101  D(12,21,22,4)         156.492          estimate D2E/DX2                !
 ! D102  D(12,21,22,9)         -20.7207         estimate D2E/DX2                !
 ! D103  D(20,21,22,4)         -26.2944         estimate D2E/DX2                !
 ! D104  D(20,21,22,9)         156.4929         estimate D2E/DX2                !
 --------------------------------------------------------------------------------
 Trust Radius=3.00D-01 FncErr=1.00D-07 GrdErr=1.00D-06 EigMax=2.50D+02 EigMin=1.00D-04
 Number of steps in this run=    216 maximum allowed number of steps=    216.
 GradGradGradGradGradGradGradGradGradGradGradGradGradGradGradGradGradGrad

                          Input orientation:                          
 ---------------------------------------------------------------------
 Center     Atomic      Atomic             Coordinates (Angstroms)
 Number     Number       Type             X           Y           Z
 ---------------------------------------------------------------------
      1          6           0       -2.710400   -3.230200   -0.651000
      2          6           0       -1.383000   -3.036900   -0.992600
      3          6           0       -0.803000   -1.773300   -0.838400
      4          6           0       -1.502200   -0.660700   -0.306000
      5          6           0       -2.887700   -0.871400   -0.074700
      6          6           0       -3.462800   -2.147500   -0.208700
      7          6           0       -3.707200    0.206900    0.240000
      8          6           0       -3.193600    1.495300    0.226200
      9          6           0       -1.830100    1.724900    0.018400
     10          6           0       -1.406300    3.045200   -0.112000
     11          6           0       -0.076100    3.334900   -0.369200
     12          6           0        0.887800    2.330500   -0.324200
     13          6           0        2.219900    2.695200   -0.542300
     14          6           0        3.246700    1.775200   -0.389500
     15          6           0        2.973100    0.503800    0.102400
     16          6           0        4.044800   -0.357300    0.397600
     17          6           0        3.829300   -1.585100    1.014100
     18          6           0        2.541000   -1.947000    1.368500
     19          6           0        1.471100   -1.102100    1.055200
     20          6           0        1.628700    0.116100    0.347000
     21          6           0        0.525800    0.989400   -0.032600
     22          6           0       -0.907200    0.652000   -0.091200
     23          1           0       -3.170600   -4.207500   -0.765200
     24          1           0       -0.792600   -3.858200   -1.389800
     25          1           0        0.224200   -1.658400   -1.179100
     26          1           0       -4.519600   -2.300800    0.001100
     27          1           0       -4.771900    0.068300    0.412900
     28          1           0       -3.881000    2.326900    0.370100
     29          1           0       -2.119200    3.866500   -0.075700
     30          1           0        0.205100    4.371100   -0.545500
     31          1           0        2.477300    3.714100   -0.825700
     32          1           0        4.269400    2.094500   -0.576100
     33          1           0        5.068100   -0.059800    0.176900
     34          1           0        4.667300   -2.234200    1.251000
     35          1           0        2.357800   -2.878200    1.897800
     36          1           0        0.486900   -1.402100    1.409900
 ---------------------------------------------------------------------
                    Distance matrix (angstroms):
                    1          2          3          4          5
     1  C    0.000000
     2  C    1.384213   0.000000
     3  C    2.407457   1.398879   0.000000
     4  C    2.860263   2.476278   1.417818   0.000000
     5  C    2.434645   2.792141   2.396380   1.420389   0.000000
     6  C    1.390674   2.393972   2.758819   2.462518   1.406104
     7  C    3.687973   4.176535   3.676753   2.431640   1.390449
     8  C    4.830457   5.030366   4.187134   2.791488   2.405283
     9  C    5.077011   4.888431   3.745189   2.429782   2.804988
    10  C    6.432095   6.145563   4.910150   3.712213   4.187564
    11  C    7.079512   6.534252   5.180950   4.242944   5.068016
    12  C    6.631382   5.866198   4.468152   3.828800   4.956694
    13  C    7.709088   6.785325   5.403063   5.017164   6.247148
    14  C    7.785207   6.704786   5.403095   5.337849   6.688382
    15  C    6.841969   5.719370   4.508794   4.642323   6.022584
    16  C    7.415244   6.210791   5.199415   5.599671   6.967562
    17  C    6.945976   5.770844   4.992532   5.569746   6.841998
    18  C    5.770804   4.707489   4.010351   4.561358   5.719312
    19  C    4.992481   4.010339   3.034429   3.299729   4.508773
    20  C    5.569696   4.561389   3.299723   3.291255   4.642290
    21  C    5.353544   4.558093   3.169785   2.628757   3.887973
    22  C    4.316988   3.827126   2.539930   1.457170   2.498680
    23  H    1.086251   2.148844   3.396501   3.946418   3.418536
    24  H    2.148992   1.086680   2.156608   3.449951   3.878132
    25  H    3.370656   2.125591   1.088310   2.176733   3.394553
    26  H    2.135936   3.371579   3.846574   3.448034   2.170721
    27  H    4.032588   4.806489   4.550759   3.426251   2.161250
    28  H    5.770122   6.071845   5.267466   3.878344   3.378404
    29  H    7.144483   7.002830   5.841356   4.574852   4.799822
    30  H    8.141930   7.589494   6.233435   5.318951   6.104987
    31  H    8.669836   7.778546   6.393128   5.936782   7.097467
    32  H    8.779274   7.645545   6.384193   6.401207   7.763507
    33  H    8.440493   7.200524   6.199736   6.615370   8.001047
    34  H    7.683754   6.502630   5.873858   6.554608   7.790554
    35  H    5.683919   4.730030   4.324147   4.967257   5.952585
    36  H    4.220425   3.455590   2.618489   2.729561   3.724729
                    6          7          8          9         10
     6  C    0.000000
     7  C    2.409204   0.000000
     8  C    3.678532   1.387065   0.000000
     9  C    4.208654   2.424239   1.398224   0.000000
    10  C    5.585936   3.670694   2.389772   1.392768   0.000000
    11  C    6.446100   4.831190   3.668438   2.412229   1.385464
    12  C    6.244481   5.093331   4.202181   2.805549   2.412202
    13  C    7.473695   6.475658   5.597887   4.202186   3.668376
    14  C    7.774166   7.156295   6.475716   5.093409   4.831182
    15  C    6.967567   6.688310   6.247126   4.956700   5.067921
    16  C    7.741865   7.774102   7.473683   6.244502   6.446021
    17  C    7.415272   7.785199   7.709136   6.631465   7.079498
    18  C    6.210747   6.704685   6.785272   5.866186   6.534150
    19  C    5.199392   5.403038   5.403069   4.468199   5.180915
    20  C    5.599648   5.337745   5.017107   3.828774   4.242821
    21  C    5.077409   4.313340   3.762559   2.468568   2.822344
    22  C    3.792374   2.854436   2.457544   1.419462   2.444778
    23  H    2.153758   4.559089   5.788379   6.132238   7.492735
    24  H    3.384001   5.260815   6.085739   5.850679   7.047434
    25  H    3.843809   4.577018   4.858194   4.135320   5.091275
    26  H    1.088275   2.646814   4.027322   4.841484   6.187499
    27  H    2.647621   1.087516   2.135935   3.399138   4.523795
    28  H    4.531022   2.131087   1.088478   2.166169   2.621548
    29  H    6.163696   4.001760   2.620700   2.163073   1.088153
    30  H    7.487261   5.767466   4.518507   3.385616   2.131324
    31  H    8.368024   7.189173   6.179699   4.819037   4.004890
    32  H    8.827030   8.237427   7.529880   6.139539   5.773456
    33  H    8.791100   8.779579   8.406929   7.127092   7.186261
    34  H    8.260555   8.781420   8.760887   7.707787   8.162013
    35  H    6.233029   7.003597   7.262217   6.500706   7.300302
    36  H    4.333084   4.641985   4.831372   4.133145   5.067432
                   11         12         13         14         15
    11  C    0.000000
    12  C    1.392820   0.000000
    13  C    2.389727   1.398236   0.000000
    14  C    3.670705   2.424259   1.387107   0.000000
    15  C    4.187500   2.804870   2.405241   1.390425   0.000000
    16  C    5.585888   4.208552   3.678509   2.409159   1.406121
    17  C    6.432112   5.076947   4.830478   3.687971   2.434703
    18  C    6.145509   4.888283   5.030336   4.176524   2.792157
    19  C    4.910164   3.745094   4.187146   3.676788   2.396403
    20  C    3.712137   2.429611   2.791438   2.431660   1.420406
    21  C    2.444781   1.419374   2.457544   2.854498   2.498662
    22  C    2.822404   2.468537   3.762567   4.313403   3.887952
    23  H    8.162141   7.707823   8.760961   8.781548   7.790644
    24  H    7.300389   6.500712   7.262263   7.003695   5.952663
    25  H    5.067461   4.133103   4.831373   4.642045   3.724755
    26  H    7.186301   7.127042   8.406911   8.779622   8.001037
    27  H    5.773465   6.139468   7.529826   8.237433   7.763446
    28  H    4.004983   4.819079   6.179733   7.189261   7.097467
    29  H    2.131431   3.385720   4.518567   5.767572   6.104997
    30  H    1.088056   2.163123   2.620700   4.001795   4.799751
    31  H    2.621457   2.166186   1.088452   2.131098   3.378345
    32  H    4.523800   3.399172   2.135985   1.087514   2.161269
    33  H    6.187488   4.841440   4.027346   2.646797   2.170765
    34  H    7.492647   6.132076   5.788322   4.559017   3.418514
    35  H    7.047395   5.850533   6.085712   5.260800   3.878141
    36  H    5.091300   4.135230   4.858214   4.577070   3.394584
                   16         17         18         19         20
    16  C    0.000000
    17  C    1.390685   0.000000
    18  C    2.393994   1.384300   0.000000
    19  C    2.758822   2.407506   1.398821   0.000000
    20  C    2.462561   2.860375   2.476315   1.417884   0.000000
    21  C    3.792365   4.317029   3.827082   2.539936   1.457099
    22  C    5.077393   5.353572   4.558027   3.169765   2.628687
    23  H    8.260638   7.683846   6.502685   5.873904   6.554677
    24  H    6.233100   5.683984   4.730094   4.324170   4.967316
    25  H    4.333108   4.220456   3.455592   2.618459   2.729552
    26  H    8.791095   8.440529   7.200488   6.199717   6.615334
    27  H    8.826980   8.779283   7.645463   6.384155   6.401118
    28  H    8.368034   8.669902   7.778503   6.393151   5.936747
    29  H    7.487282   8.142006   7.589464   6.233472   5.318922
    30  H    6.163643   7.144473   7.002729   5.841311   4.574737
    31  H    4.530984   5.770120   6.071789   5.267448   3.878267
    32  H    2.647614   4.032602   4.806512   4.550810   3.426292
    33  H    1.088282   2.135900   3.371597   3.846584   3.448093
    34  H    2.153730   1.086138   2.148823   3.396422   3.946418
    35  H    3.384007   2.149034   1.086671   2.156558   3.449985
    36  H    3.843828   3.370725   2.125549   1.088330   2.176785
                   21         22         23         24         25
    21  C    0.000000
    22  C    1.473351   0.000000
    23  H    6.419334   5.402962   0.000000
    24  H    5.203787   4.694827   2.483348   0.000000
    25  H    2.901081   2.793124   4.265430   2.432570   0.000000
    26  H    6.023505   4.666581   2.458154   4.272075   4.930435
    27  H    5.395602   3.940905   4.715352   5.873837   5.520595
    28  H    4.622874   3.444064   6.670229   7.133788   5.927504
    29  H    3.908400   3.435432   8.171311   7.947183   6.101929
    30  H    3.435376   3.908363   9.221496   8.332444   6.062729
    31  H    3.444031   4.622855   9.729038   8.267417   5.836532
    32  H    3.940962   5.395658   9.752157   7.856245   5.550812
    33  H    4.666605   6.023516   9.271847   7.157527   5.278032
    34  H    5.402893   6.419245   8.330165   6.278671   5.096869
    35  H    4.694784   5.203716   6.278679   4.657653   3.937953
    36  H    2.793133   2.901059   5.096924   3.938003   2.614885
                   26         27         28         29         30
    26  H    0.000000
    27  H    2.417823   0.000000
    28  H    4.686105   2.428335   0.000000
    29  H    6.618414   4.658527   2.381815   0.000000
    30  H    8.193645   6.648545   4.659752   2.424398   0.000000
    31  H    9.263867   8.208343   6.616815   4.659779   2.381817
    32  H    9.843696   9.318193   8.208430   6.648654   4.658581
    33  H    9.847689   9.843663   9.263911   8.193712   6.618422
    34  H    9.271775   9.752047   9.728980   9.221456   8.171207
    35  H    7.157478   7.856170   8.267379   8.332419   7.947086
    36  H    5.278013   5.550771   5.836538   6.062748   6.101872
                   31         32         33         34         35
    31  H    0.000000
    32  H    2.428379   0.000000
    33  H    4.686126   2.417838   0.000000
    34  H    6.670162   4.715322   2.458119   0.000000
    35  H    7.133733   5.873852   4.272072   2.483320   0.000000
    36  H    5.927487   5.520662   4.930462   4.265370   2.432526
                   36
    36  H    0.000000
 Stoichiometry    C22H14
 Framework group  C2[X(C22H14)]
 Deg. of freedom    52
 Full point group                 C2      NOp   2
 Largest Abelian subgroup         C2      NOp   2
 Largest concise Abelian subgroup C2      NOp   2
                         Standard orientation:                         
 ---------------------------------------------------------------------
 Center     Atomic      Atomic             Coordinates (Angstroms)
 Number     Number       Type             X           Y           Z
 ---------------------------------------------------------------------
      1          6           0        0.735043    3.394324   -2.554486
      2          6           0        1.123202    2.068489   -2.641314
      3          6           0        0.914055    1.211001   -1.556033
      4          6           0        0.279710    1.621709   -0.356393
      5          6           0        0.000000    3.011300   -0.265272
      6          6           0        0.190040    3.866279   -1.365282
      7          6           0       -0.420555    3.553310    0.944152
      8          6           0       -0.466838    2.759717    2.080821
      9          6           0       -0.212772    1.386528    2.011305
     10          6           0       -0.148949    0.676467    3.207775
     11          6           0        0.148949   -0.676467    3.207775
     12          6           0        0.212772   -1.386528    2.011305
     13          6           0        0.466838   -2.759717    2.080821
     14          6           0        0.420555   -3.553310    0.944152
     15          6           0       -0.000000   -3.011300   -0.265272
     16          6           0       -0.190040   -3.866279   -1.365282
     17          6           0       -0.735043   -3.394324   -2.554486
     18          6           0       -1.123202   -2.068489   -2.641314
     19          6           0       -0.914055   -1.211001   -1.556033
     20          6           0       -0.279710   -1.621709   -0.356393
     21          6           0       -0.007668   -0.736639    0.768759
     22          6           0        0.007668    0.736639    0.768759
     23          1           0        0.891230    4.068678   -3.391619
     24          1           0        1.599006    1.693166   -3.543321
     25          1           0        1.292789    0.195177   -1.651323
     26          1           0       -0.057060    4.923526   -1.291023
     27          1           0       -0.632179    4.615973    1.037177
     28          1           0       -0.695192    3.234530    3.033287
     29          1           0       -0.270528    1.181611    4.163874
     30          1           0        0.270528   -1.181611    4.163874
     31          1           0        0.695192   -3.234530    3.033287
     32          1           0        0.632179   -4.615973    1.037177
     33          1           0        0.057060   -4.923526   -1.291023
     34          1           0       -0.891230   -4.068678   -3.391619
     35          1           0       -1.599006   -1.693166   -3.543321
     36          1           0       -1.292789   -0.195177   -1.651323
 ---------------------------------------------------------------------
 Rotational constants (GHZ):           0.4545493           0.2725907           0.1805933
 Standard basis: def2SVPP (5D, 7F)
 There are   179 symmetry adapted cartesian basis functions of A   symmetry.
 There are   179 symmetry adapted cartesian basis functions of B   symmetry.
 There are   168 symmetry adapted basis functions of A   symmetry.
 There are   168 symmetry adapted basis functions of B   symmetry.
   336 basis functions,   606 primitive gaussians,   358 cartesian basis functions
    73 alpha electrons       73 beta electrons
       nuclear repulsion energy      1597.9807249027 Hartrees.
 NAtoms=   36 NActive=   36 NUniq=   18 SFac= 4.00D+00 NAtFMM=   60 NAOKFM=F Big=F
 Integral buffers will be    131072 words long.
 Raffenetti 2 integral format.
 Two-electron integral symmetry is turned on.
 Nuclear repulsion after empirical dispersion term =     1597.8852339841 Hartrees.
 One-electron integrals computed using PRISM.
   2 Symmetry operations used in ECPInt.
 ECPInt:  NShTT=   12880 NPrTT=   51688 LenC2=   12113 LenP2D=   33269.
 LDataN:  DoStor=T MaxTD1= 4 Len=   56
 NBasis=   336 RedAO= T EigKep=  2.20D-04  NBF=   168   168
 NBsUse=   336 1.00D-06 EigRej= -1.00D+00 NBFU=   168   168
 ExpMin= 1.22D-01 ExpMax= 1.24D+03 ExpMxC= 1.86D+02 IAcc=3 IRadAn=         5 AccDes= 0.00D+00
 Harris functional with IExCor=  402 and IRadAn=       5 diagonalized for initial guess.
 HarFok:  IExCor=  402 AccDes= 0.00D+00 IRadAn=         5 IDoV= 1 UseB2=F ITyADJ=14
 ICtDFT=  3500011 ScaDFX=  1.000000  1.000000  1.000000  1.000000
 FoFCou: FMM=F IPFlag=           0 FMFlag=      100000 FMFlg1=           0
         NFxFlg=           0 DoJE=T BraDBF=F KetDBF=T FulRan=T
         wScrn=  0.000000 ICntrl=       500 IOpCl=  0 I1Cent=   200000004 NGrid=           0
         NMat0=    1 NMatS0=      1 NMatT0=    0 NMatD0=    1 NMtDS0=    0 NMtDT0=    0
 Petite list used in FoFCou.
 Initial guess orbital symmetries:
       Occupied  (A) (B) (A) (B) (A) (B) (B) (A) (B) (A) (B) (A)
                 (B) (A) (A) (B) (B) (A) (B) (A) (B) (A) (A) (B)
                 (A) (B) (A) (A) (B) (B) (A) (A) (B) (B) (A) (B)
                 (A) (A) (B) (B) (A) (A) (A) (B) (B) (B) (A) (A)
                 (A) (B) (A) (B) (A) (B) (A) (B) (B) (A) (B) (A)
                 (A) (B) (B) (B) (A) (A) (B) (B) (A) (A) (B) (B)
                 (A)
       Virtual   (B) (A) (A) (B) (B) (A) (A) (B) (A) (A) (B) (A)
                 (B) (B) (A) (A) (B) (A) (B) (A) (B) (A) (B) (A)
                 (B) (A) (B) (B) (A) (B) (A) (A) (B) (A) (B) (B)
                 (A) (A) (A) (A) (B) (B) (B) (A) (B) (B) (A) (A)
                 (B) (B) (A) (A) (B) (A) (B) (A) (A) (B) (A) (B)
                 (B) (A) (B) (B) (A) (A) (A) (B) (A) (B) (B) (A)
                 (B) (A) (A) (B) (A) (B) (B) (A) (A) (B) (B) (A)
                 (B) (B) (A) (A) (B) (A) (B) (B) (A) (B) (B) (A)
                 (A) (B) (A) (A) (B) (B) (A) (A) (A) (B) (B) (A)
                 (B) (B) (A) (A) (B) (A) (B) (B) (B) (A) (A) (B)
                 (A) (B) (A) (A) (B) (A) (B) (A) (B) (B) (B) (A)
                 (A) (B) (A) (B) (B) (A) (A) (B) (B) (A) (A) (B)
                 (B) (A) (B) (A) (B) (A) (B) (A) (B) (A) (B) (B)
                 (A) (B) (A) (B) (A) (B) (B) (A) (B) (A) (A) (B)
                 (B) (A) (B) (A) (A) (A) (A) (B) (A) (B) (B) (B)
                 (A) (A) (A) (B) (A) (B) (B) (A) (A) (B) (B) (A)
                 (A) (B) (A) (B) (B) (A) (A) (B) (A) (B) (A) (B)
                 (B) (A) (A) (B) (A) (B) (A) (B) (A) (B) (A) (A)
                 (B) (B) (A) (A) (B) (B) (A) (B) (B) (A) (A) (B)
                 (A) (B) (A) (A) (B) (B) (A) (B) (B) (A) (A) (B)
                 (A) (B) (A) (B) (A) (B) (B) (A) (A) (B) (A) (B)
                 (B) (A) (A) (A) (B) (B) (B) (A) (A) (B) (B)
 The electronic state of the initial guess is 1-A.
 Requested convergence on RMS density matrix=1.00D-08 within 128 cycles.
 Requested convergence on MAX density matrix=1.00D-06.
 Requested convergence on             energy=1.00D-06.
 No special actions if energy rises.
 Integral accuracy reduced to 1.0D-05 until final iterations.
 Initial convergence to 1.0D-05 achieved.  Increase integral accuracy.
 SCF Done:  E(RB3LYP) =  -846.253642642     A.U. after   14 cycles
            NFock= 14  Conv=0.96D-08     -V/T= 2.0104

 **********************************************************************

            Population analysis using the SCF Density.

 **********************************************************************

 Orbital symmetries:
       Occupied  (A) (B) (B) (A) (B) (A) (A) (B) (B) (A) (A) (B)
                 (A) (B) (B) (A) (B) (A) (B) (A) (B) (A) (A) (B)
                 (A) (B) (A) (A) (B) (B) (A) (A) (B) (B) (A) (A)
                 (B) (A) (B) (B) (A) (A) (A) (B) (B) (A) (B) (A)
                 (B) (A) (B) (A) (A) (B) (B) (A) (A) (B) (B) (A)
                 (B) (A) (B) (A) (B) (A) (B) (B) (A) (A) (B) (B)
                 (A)
       Virtual   (B) (A) (A) (B) (B) (A) (A) (A) (B) (A) (B) (A)
                 (B) (B) (A) (B) (A) (A) (B) (A) (B) (A) (B) (B)
                 (A) (A) (B) (B) (A) (B) (A) (A) (A) (B) (B) (B)
                 (A) (A) (B) (A) (A) (B) (B) (A) (B) (A) (B) (A)
                 (B) (A) (B) (A) (B) (A) (A) (B) (A) (B) (B) (A)
                 (B) (A) (B) (A) (A) (B) (A) (B) (B) (A) (B) (A)
                 (B) (A) (A) (B) (B) (A) (B) (A) (A) (B) (B) (A)
                 (B) (A) (B) (A) (B) (B) (A) (B) (A) (B) (A) (A)
                 (B) (A) (B) (A) (A) (B) (A) (B) (B) (A) (B) (A)
                 (A) (B) (A) (B) (B) (B) (B) (A) (A) (B) (A) (A)
                 (B) (B) (A) (B) (A) (A) (B) (A) (B) (B) (B) (A)
                 (A) (B) (A) (B) (A) (B) (A) (B) (B) (A) (A) (B)
                 (B) (A) (A) (B) (B) (A) (B) (A) (B) (A) (B) (B)
                 (A) (B) (A) (B) (A) (B) (A) (B) (B) (A) (A) (B)
                 (B) (A) (B) (A) (A) (A) (A) (B) (B) (A) (B) (B)
                 (A) (A) (A) (B) (A) (B) (B) (A) (A) (B) (B) (A)
                 (A) (B) (B) (A) (B) (A) (A) (B) (A) (B) (A) (B)
                 (B) (A) (A) (B) (A) (B) (B) (A) (A) (A) (B) (A)
                 (B) (B) (A) (A) (B) (B) (A) (B) (B) (A) (A) (B)
                 (A) (B) (A) (A) (B) (B) (A) (B) (B) (A) (A) (B)
                 (A) (B) (A) (A) (B) (B) (B) (A) (A) (B) (A) (B)
                 (A) (B) (A) (A) (B) (B) (B) (A) (A) (B) (B)
 The electronic state is 1-A.
 Alpha  occ. eigenvalues --  -10.20975 -10.20957 -10.20214 -10.20203 -10.19518
 Alpha  occ. eigenvalues --  -10.19512 -10.19400 -10.19398 -10.18780 -10.18779
 Alpha  occ. eigenvalues --  -10.18752 -10.18741 -10.18741 -10.18709 -10.18693
 Alpha  occ. eigenvalues --  -10.18692 -10.18690 -10.18690 -10.18642 -10.18640
 Alpha  occ. eigenvalues --  -10.18602 -10.18601  -0.88966  -0.87000  -0.84689
 Alpha  occ. eigenvalues --   -0.82004  -0.79312  -0.77929  -0.76036  -0.74655
 Alpha  occ. eigenvalues --   -0.72817  -0.71344  -0.70223  -0.64350  -0.63937
 Alpha  occ. eigenvalues --   -0.61005  -0.60880  -0.60786  -0.57753  -0.55106
 Alpha  occ. eigenvalues --   -0.53314  -0.52609  -0.50479  -0.50079  -0.49440
 Alpha  occ. eigenvalues --   -0.46964  -0.46453  -0.45446  -0.43871  -0.43270
 Alpha  occ. eigenvalues --   -0.43182  -0.42868  -0.42065  -0.41630  -0.40614
 Alpha  occ. eigenvalues --   -0.39948  -0.39569  -0.39037  -0.37906  -0.36867
 Alpha  occ. eigenvalues --   -0.36713  -0.34954  -0.34932  -0.33812  -0.33253
 Alpha  occ. eigenvalues --   -0.32849  -0.30238  -0.29274  -0.28139  -0.26188
 Alpha  occ. eigenvalues --   -0.23079  -0.21473  -0.20654
 Alpha virt. eigenvalues --   -0.06088  -0.05998  -0.03125  -0.00534   0.01612
 Alpha virt. eigenvalues --    0.03035   0.04696   0.06373   0.06778   0.07196
 Alpha virt. eigenvalues --    0.08167   0.09228   0.09252   0.10586   0.10962
 Alpha virt. eigenvalues --    0.12392   0.12751   0.13153   0.13692   0.15151
 Alpha virt. eigenvalues --    0.15784   0.16720   0.17614   0.18339   0.20450
 Alpha virt. eigenvalues --    0.22356   0.23736   0.24932   0.26012   0.26600
 Alpha virt. eigenvalues --    0.27033   0.28074   0.28991   0.29275   0.29983
 Alpha virt. eigenvalues --    0.30488   0.30749   0.31555   0.32308   0.32676
 Alpha virt. eigenvalues --    0.33232   0.34949   0.35324   0.36025   0.36490
 Alpha virt. eigenvalues --    0.37733   0.38648   0.39441   0.39934   0.41136
 Alpha virt. eigenvalues --    0.41314   0.41400   0.42454   0.42671   0.44305
 Alpha virt. eigenvalues --    0.44425   0.44870   0.45695   0.46733   0.47070
 Alpha virt. eigenvalues --    0.47330   0.47890   0.47901   0.48346   0.48799
 Alpha virt. eigenvalues --    0.49033   0.49989   0.50188   0.50738   0.50956
 Alpha virt. eigenvalues --    0.51940   0.52226   0.54215   0.54475   0.55611
 Alpha virt. eigenvalues --    0.55672   0.56334   0.56591   0.57460   0.58724
 Alpha virt. eigenvalues --    0.59904   0.60361   0.62136   0.62573   0.63042
 Alpha virt. eigenvalues --    0.65339   0.65910   0.66503   0.66706   0.67111
 Alpha virt. eigenvalues --    0.67251   0.68812   0.68874   0.69103   0.69581
 Alpha virt. eigenvalues --    0.70171   0.71209   0.71553   0.71557   0.72079
 Alpha virt. eigenvalues --    0.72899   0.73609   0.74352   0.74479   0.74690
 Alpha virt. eigenvalues --    0.75803   0.75898   0.76067   0.77991   0.78310
 Alpha virt. eigenvalues --    0.79853   0.79955   0.80964   0.81317   0.81945
 Alpha virt. eigenvalues --    0.82001   0.83237   0.83549   0.83692   0.86523
 Alpha virt. eigenvalues --    0.87354   0.88197   0.89394   0.89597   0.90002
 Alpha virt. eigenvalues --    0.91405   0.95313   0.98019   1.00009   1.03903
 Alpha virt. eigenvalues --    1.06889   1.07083   1.09504   1.09609   1.11552
 Alpha virt. eigenvalues --    1.12748   1.15433   1.15826   1.16440   1.17681
 Alpha virt. eigenvalues --    1.19394   1.22742   1.24453   1.24562   1.24991
 Alpha virt. eigenvalues --    1.26486   1.28868   1.29615   1.30804   1.34010
 Alpha virt. eigenvalues --    1.34956   1.37024   1.38114   1.41018   1.41638
 Alpha virt. eigenvalues --    1.43718   1.45370   1.45836   1.45920   1.46536
 Alpha virt. eigenvalues --    1.48608   1.49274   1.49451   1.49589   1.50190
 Alpha virt. eigenvalues --    1.51532   1.52449   1.53474   1.53880   1.55980
 Alpha virt. eigenvalues --    1.60969   1.67844   1.69120   1.70988   1.72648
 Alpha virt. eigenvalues --    1.73056   1.76353   1.76524   1.77651   1.77748
 Alpha virt. eigenvalues --    1.79156   1.81755   1.82977   1.83280   1.84170
 Alpha virt. eigenvalues --    1.85371   1.86284   1.88192   1.88997   1.89498
 Alpha virt. eigenvalues --    1.90259   1.93281   1.93577   1.94003   1.98152
 Alpha virt. eigenvalues --    1.98178   2.00463   2.01700   2.04709   2.05744
 Alpha virt. eigenvalues --    2.06805   2.07745   2.08363   2.08870   2.09439
 Alpha virt. eigenvalues --    2.10762   2.15715   2.16471   2.19235   2.19637
 Alpha virt. eigenvalues --    2.20346   2.20514   2.22136   2.23654   2.23689
 Alpha virt. eigenvalues --    2.25482   2.26536   2.26826   2.28592   2.29812
 Alpha virt. eigenvalues --    2.31117   2.32689   2.33756   2.34848   2.36862
 Alpha virt. eigenvalues --    2.37321   2.39806   2.40687   2.48701   2.49199
 Alpha virt. eigenvalues --    2.52539   2.54313   2.56140   2.56414   2.57588
 Alpha virt. eigenvalues --    2.58380   2.59571   2.59598   2.62325   2.62335
 Alpha virt. eigenvalues --    2.63337   2.64362   2.64657   2.66523   2.66533
 Alpha virt. eigenvalues --    2.68004   2.71754   2.74519   2.75007   2.80585
 Alpha virt. eigenvalues --    2.81766   2.83597   2.87526   2.87659   2.96526
 Alpha virt. eigenvalues --    2.97426   2.99945   3.04793   3.29567   3.31573
 Alpha virt. eigenvalues --    3.40754   3.42603   3.52148
          Condensed to atoms (all electrons):
               1          2          3          4          5          6
     1  C    5.241670   0.163533   0.140185  -0.150614   0.143930   0.199182
     2  C    0.163533   5.194614   0.266401   0.119309  -0.160594   0.146370
     3  C    0.140185   0.266401   5.410923   0.264020   0.043287  -0.179563
     4  C   -0.150614   0.119309   0.264020   5.472977   0.111116   0.042005
     5  C    0.143930  -0.160594   0.043287   0.111116   5.388311   0.232330
     6  C    0.199182   0.146370  -0.179563   0.042005   0.232330   5.461921
     7  C    0.022762  -0.002412   0.029899   0.010934   0.180720  -0.159150
     8  C   -0.001724   0.000380  -0.003697  -0.128377   0.143770   0.020076
     9  C    0.000269  -0.000433   0.016673   0.017304  -0.144279  -0.001520
    10  C   -0.000000   0.000000  -0.000092   0.027167  -0.000822   0.000006
    11  C   -0.000000   0.000002  -0.000094  -0.004517   0.000239   0.000002
    12  C    0.000000   0.000020  -0.000072   0.013178  -0.000088  -0.000000
    13  C    0.000000  -0.000001   0.000018   0.000142  -0.000002  -0.000000
    14  C   -0.000000   0.000001  -0.000053  -0.000075   0.000001   0.000000
    15  C    0.000001  -0.000043  -0.000209  -0.000433   0.000005  -0.000001
    16  C   -0.000000   0.000002  -0.000014   0.000014  -0.000001   0.000000
    17  C    0.000000  -0.000024   0.000111  -0.000049   0.000001  -0.000000
    18  C   -0.000024   0.000040  -0.000903   0.000335  -0.000043   0.000002
    19  C    0.000111  -0.000903   0.002090  -0.006228  -0.000209  -0.000014
    20  C   -0.000049   0.000335  -0.006228  -0.031740  -0.000433   0.000014
    21  C   -0.000066   0.000734  -0.025955  -0.103140   0.016019   0.000160
    22  C   -0.003525   0.016124  -0.143842   0.279441  -0.005792   0.025114
    23  H    0.436174  -0.084869   0.015277  -0.001220   0.015909  -0.079282
    24  H   -0.088317   0.438549  -0.075362   0.015794  -0.001781   0.015765
    25  H    0.014827  -0.069514   0.417706  -0.054108   0.017009  -0.001491
    26  H   -0.082568   0.016139  -0.002256   0.016556  -0.079294   0.440616
    27  H    0.001102  -0.000086  -0.000289   0.015733  -0.086187  -0.019939
    28  H    0.000013  -0.000001   0.000034  -0.001687   0.016750  -0.000605
    29  H    0.000000  -0.000000   0.000011  -0.000099  -0.000153  -0.000002
    30  H    0.000000   0.000000   0.000000   0.000027  -0.000001   0.000000
    31  H    0.000000   0.000000   0.000000   0.000008  -0.000000   0.000000
    32  H    0.000000  -0.000000   0.000000   0.000001   0.000000  -0.000000
    33  H    0.000000  -0.000000   0.000000   0.000000   0.000000  -0.000000
    34  H    0.000000   0.000000  -0.000001   0.000001   0.000000   0.000000
    35  H   -0.000006   0.000116   0.000013   0.000044  -0.000003   0.000001
    36  H    0.000046  -0.001313   0.006750  -0.003577  -0.000359   0.000023
               7          8          9         10         11         12
     1  C    0.022762  -0.001724   0.000269  -0.000000  -0.000000   0.000000
     2  C   -0.002412   0.000380  -0.000433   0.000000   0.000002   0.000020
     3  C    0.029899  -0.003697   0.016673  -0.000092  -0.000094  -0.000072
     4  C    0.010934  -0.128377   0.017304   0.027167  -0.004517   0.013178
     5  C    0.180720   0.143770  -0.144279  -0.000822   0.000239  -0.000088
     6  C   -0.159150   0.020076  -0.001520   0.000006   0.000002  -0.000000
     7  C    5.495322   0.186760   0.140886   0.021964  -0.001946   0.000232
     8  C    0.186760   5.484268   0.184947  -0.149825   0.021779  -0.000588
     9  C    0.140886   0.184947   5.330639   0.192309   0.140628  -0.137963
    10  C    0.021964  -0.149825   0.192309   5.484108   0.176326   0.140628
    11  C   -0.001946   0.021779   0.140628   0.176326   5.484108   0.192309
    12  C    0.000232  -0.000588  -0.137963   0.140628   0.192309   5.330639
    13  C    0.000002  -0.000002  -0.000588   0.021779  -0.149825   0.184947
    14  C   -0.000000   0.000002   0.000232  -0.001946   0.021964   0.140886
    15  C    0.000001  -0.000002  -0.000088   0.000239  -0.000822  -0.144279
    16  C    0.000000  -0.000000  -0.000000   0.000002   0.000006  -0.001520
    17  C   -0.000000   0.000000   0.000000  -0.000000  -0.000000   0.000269
    18  C    0.000001  -0.000001   0.000020   0.000002   0.000000  -0.000433
    19  C   -0.000053   0.000018  -0.000072  -0.000094  -0.000092   0.016673
    20  C   -0.000075   0.000142   0.013178  -0.004517   0.027167   0.017304
    21  C   -0.004461   0.023837  -0.006499  -0.119575   0.008780   0.230970
    22  C   -0.122207   0.019327   0.230970   0.008780  -0.119575  -0.006499
    23  H   -0.000534   0.000009  -0.000000   0.000000   0.000000  -0.000000
    24  H    0.000022   0.000000   0.000004  -0.000000  -0.000000  -0.000000
    25  H   -0.000262  -0.000049  -0.000663   0.000047  -0.000056   0.000140
    26  H   -0.023298   0.001314  -0.000099  -0.000001   0.000000  -0.000000
    27  H    0.439832  -0.078752   0.016645  -0.000607   0.000015  -0.000002
    28  H   -0.079012   0.443613  -0.085265  -0.022839   0.001679  -0.000137
    29  H    0.001616  -0.021977  -0.087034   0.443481  -0.079277   0.016912
    30  H    0.000015  -0.000634   0.016912  -0.079277   0.443481  -0.087034
    31  H    0.000000  -0.000001  -0.000137   0.001679  -0.022839  -0.085265
    32  H    0.000000   0.000000  -0.000002   0.000015  -0.000607   0.016645
    33  H    0.000000   0.000000  -0.000000   0.000000  -0.000001  -0.000099
    34  H   -0.000000  -0.000000  -0.000000   0.000000   0.000000  -0.000000
    35  H    0.000000   0.000000  -0.000000  -0.000000  -0.000000   0.000004
    36  H   -0.000040   0.000047   0.000140  -0.000056   0.000047  -0.000663
              13         14         15         16         17         18
     1  C    0.000000  -0.000000   0.000001  -0.000000   0.000000  -0.000024
     2  C   -0.000001   0.000001  -0.000043   0.000002  -0.000024   0.000040
     3  C    0.000018  -0.000053  -0.000209  -0.000014   0.000111  -0.000903
     4  C    0.000142  -0.000075  -0.000433   0.000014  -0.000049   0.000335
     5  C   -0.000002   0.000001   0.000005  -0.000001   0.000001  -0.000043
     6  C   -0.000000   0.000000  -0.000001   0.000000  -0.000000   0.000002
     7  C    0.000002  -0.000000   0.000001   0.000000  -0.000000   0.000001
     8  C   -0.000002   0.000002  -0.000002  -0.000000   0.000000  -0.000001
     9  C   -0.000588   0.000232  -0.000088  -0.000000   0.000000   0.000020
    10  C    0.021779  -0.001946   0.000239   0.000002  -0.000000   0.000002
    11  C   -0.149825   0.021964  -0.000822   0.000006  -0.000000   0.000000
    12  C    0.184947   0.140886  -0.144279  -0.001520   0.000269  -0.000433
    13  C    5.484268   0.186760   0.143770   0.020076  -0.001724   0.000380
    14  C    0.186760   5.495322   0.180720  -0.159150   0.022762  -0.002412
    15  C    0.143770   0.180720   5.388311   0.232330   0.143930  -0.160594
    16  C    0.020076  -0.159150   0.232330   5.461921   0.199182   0.146370
    17  C   -0.001724   0.022762   0.143930   0.199182   5.241670   0.163533
    18  C    0.000380  -0.002412  -0.160594   0.146370   0.163533   5.194614
    19  C   -0.003697   0.029899   0.043287  -0.179563   0.140185   0.266401
    20  C   -0.128377   0.010934   0.111116   0.042005  -0.150614   0.119309
    21  C    0.019327  -0.122207  -0.005792   0.025114  -0.003525   0.016124
    22  C    0.023837  -0.004461   0.016019   0.000160  -0.000066   0.000734
    23  H   -0.000000  -0.000000   0.000000   0.000000   0.000000   0.000000
    24  H    0.000000   0.000000  -0.000003   0.000001  -0.000006   0.000116
    25  H    0.000047  -0.000040  -0.000359   0.000023   0.000046  -0.001313
    26  H    0.000000   0.000000   0.000000  -0.000000   0.000000  -0.000000
    27  H    0.000000   0.000000   0.000000  -0.000000   0.000000  -0.000000
    28  H   -0.000001   0.000000  -0.000000   0.000000   0.000000   0.000000
    29  H   -0.000634   0.000015  -0.000001   0.000000   0.000000   0.000000
    30  H   -0.021977   0.001616  -0.000153  -0.000002   0.000000  -0.000000
    31  H    0.443613  -0.079012   0.016750  -0.000605   0.000013  -0.000001
    32  H   -0.078752   0.439832  -0.086187  -0.019939   0.001102  -0.000086
    33  H    0.001314  -0.023298  -0.079294   0.440616  -0.082568   0.016139
    34  H    0.000009  -0.000534   0.015909  -0.079282   0.436174  -0.084869
    35  H    0.000000   0.000022  -0.001781   0.015765  -0.088317   0.438549
    36  H   -0.000049  -0.000262   0.017009  -0.001491   0.014827  -0.069514
              19         20         21         22         23         24
     1  C    0.000111  -0.000049  -0.000066  -0.003525   0.436174  -0.088317
     2  C   -0.000903   0.000335   0.000734   0.016124  -0.084869   0.438549
     3  C    0.002090  -0.006228  -0.025955  -0.143842   0.015277  -0.075362
     4  C   -0.006228  -0.031740  -0.103140   0.279441  -0.001220   0.015794
     5  C   -0.000209  -0.000433   0.016019  -0.005792   0.015909  -0.001781
     6  C   -0.000014   0.000014   0.000160   0.025114  -0.079282   0.015765
     7  C   -0.000053  -0.000075  -0.004461  -0.122207  -0.000534   0.000022
     8  C    0.000018   0.000142   0.023837   0.019327   0.000009   0.000000
     9  C   -0.000072   0.013178  -0.006499   0.230970  -0.000000   0.000004
    10  C   -0.000094  -0.004517  -0.119575   0.008780   0.000000  -0.000000
    11  C   -0.000092   0.027167   0.008780  -0.119575   0.000000  -0.000000
    12  C    0.016673   0.017304   0.230970  -0.006499  -0.000000  -0.000000
    13  C   -0.003697  -0.128377   0.019327   0.023837  -0.000000   0.000000
    14  C    0.029899   0.010934  -0.122207  -0.004461  -0.000000   0.000000
    15  C    0.043287   0.111116  -0.005792   0.016019   0.000000  -0.000003
    16  C   -0.179563   0.042005   0.025114   0.000160   0.000000   0.000001
    17  C    0.140185  -0.150614  -0.003525  -0.000066   0.000000  -0.000006
    18  C    0.266401   0.119309   0.016124   0.000734   0.000000   0.000116
    19  C    5.410923   0.264020  -0.143842  -0.025955  -0.000001   0.000013
    20  C    0.264020   5.472977   0.279441  -0.103140   0.000001   0.000044
    21  C   -0.143842   0.279441   5.525615   0.307525  -0.000001  -0.000003
    22  C   -0.025955  -0.103140   0.307525   5.525615   0.000046  -0.000259
    23  H   -0.000001   0.000001  -0.000001   0.000046   0.674211  -0.012282
    24  H    0.000013   0.000044  -0.000003  -0.000259  -0.012282   0.669827
    25  H    0.006750  -0.003577   0.008493  -0.027568  -0.000329  -0.012875
    26  H    0.000000   0.000000   0.000007  -0.000120  -0.012568  -0.000348
    27  H    0.000000   0.000001   0.000041  -0.001395  -0.000020  -0.000001
    28  H    0.000000   0.000008  -0.000094   0.014859  -0.000000   0.000000
    29  H    0.000000   0.000027  -0.001640   0.015120  -0.000000   0.000000
    30  H    0.000011  -0.000099   0.015120  -0.001640   0.000000  -0.000000
    31  H    0.000034  -0.001687   0.014859  -0.000094   0.000000  -0.000000
    32  H   -0.000289   0.015733  -0.001395   0.000041  -0.000000   0.000000
    33  H   -0.002256   0.016556  -0.000120   0.000007  -0.000000   0.000000
    34  H    0.015277  -0.001220   0.000046  -0.000001  -0.000000  -0.000000
    35  H   -0.075362   0.015794  -0.000259  -0.000003  -0.000000   0.000011
    36  H    0.417706  -0.054108  -0.027568   0.008493   0.000004   0.000012
              25         26         27         28         29         30
     1  C    0.014827  -0.082568   0.001102   0.000013   0.000000   0.000000
     2  C   -0.069514   0.016139  -0.000086  -0.000001  -0.000000   0.000000
     3  C    0.417706  -0.002256  -0.000289   0.000034   0.000011   0.000000
     4  C   -0.054108   0.016556   0.015733  -0.001687  -0.000099   0.000027
     5  C    0.017009  -0.079294  -0.086187   0.016750  -0.000153  -0.000001
     6  C   -0.001491   0.440616  -0.019939  -0.000605  -0.000002   0.000000
     7  C   -0.000262  -0.023298   0.439832  -0.079012   0.001616   0.000015
     8  C   -0.000049   0.001314  -0.078752   0.443613  -0.021977  -0.000634
     9  C   -0.000663  -0.000099   0.016645  -0.085265  -0.087034   0.016912
    10  C    0.000047  -0.000001  -0.000607  -0.022839   0.443481  -0.079277
    11  C   -0.000056   0.000000   0.000015   0.001679  -0.079277   0.443481
    12  C    0.000140  -0.000000  -0.000002  -0.000137   0.016912  -0.087034
    13  C    0.000047   0.000000   0.000000  -0.000001  -0.000634  -0.021977
    14  C   -0.000040   0.000000   0.000000   0.000000   0.000015   0.001616
    15  C   -0.000359   0.000000   0.000000  -0.000000  -0.000001  -0.000153
    16  C    0.000023  -0.000000  -0.000000   0.000000   0.000000  -0.000002
    17  C    0.000046   0.000000   0.000000   0.000000   0.000000   0.000000
    18  C   -0.001313  -0.000000  -0.000000   0.000000   0.000000  -0.000000
    19  C    0.006750   0.000000   0.000000   0.000000   0.000000   0.000011
    20  C   -0.003577   0.000000   0.000001   0.000008   0.000027  -0.000099
    21  C    0.008493   0.000007   0.000041  -0.000094  -0.001640   0.015120
    22  C   -0.027568  -0.000120  -0.001395   0.014859   0.015120  -0.001640
    23  H   -0.000329  -0.012568  -0.000020  -0.000000  -0.000000   0.000000
    24  H   -0.012875  -0.000348  -0.000001   0.000000   0.000000  -0.000000
    25  H    0.643063   0.000026   0.000011  -0.000000   0.000000  -0.000000
    26  H    0.000026   0.678641   0.006503  -0.000016  -0.000000  -0.000000
    27  H    0.000011   0.006503   0.681545  -0.012841  -0.000024  -0.000000
    28  H   -0.000000  -0.000016  -0.012841   0.678130   0.005844  -0.000021
    29  H    0.000000  -0.000000  -0.000024   0.005844   0.680194  -0.012723
    30  H   -0.000000  -0.000000  -0.000000  -0.000021  -0.012723   0.680194
    31  H   -0.000001  -0.000000  -0.000000  -0.000000  -0.000021   0.005844
    32  H   -0.000002   0.000000   0.000000  -0.000000  -0.000000  -0.000024
    33  H   -0.000003   0.000000   0.000000  -0.000000  -0.000000  -0.000000
    34  H    0.000004  -0.000000  -0.000000   0.000000   0.000000  -0.000000
    35  H    0.000012   0.000000   0.000000  -0.000000  -0.000000   0.000000
    36  H   -0.004018  -0.000003  -0.000002  -0.000001  -0.000000   0.000000
              31         32         33         34         35         36
     1  C    0.000000   0.000000   0.000000   0.000000  -0.000006   0.000046
     2  C    0.000000  -0.000000  -0.000000   0.000000   0.000116  -0.001313
     3  C    0.000000   0.000000   0.000000  -0.000001   0.000013   0.006750
     4  C    0.000008   0.000001   0.000000   0.000001   0.000044  -0.003577
     5  C   -0.000000   0.000000   0.000000   0.000000  -0.000003  -0.000359
     6  C    0.000000  -0.000000  -0.000000   0.000000   0.000001   0.000023
     7  C    0.000000   0.000000   0.000000  -0.000000   0.000000  -0.000040
     8  C   -0.000001   0.000000   0.000000  -0.000000   0.000000   0.000047
     9  C   -0.000137  -0.000002  -0.000000  -0.000000  -0.000000   0.000140
    10  C    0.001679   0.000015   0.000000   0.000000  -0.000000  -0.000056
    11  C   -0.022839  -0.000607  -0.000001   0.000000  -0.000000   0.000047
    12  C   -0.085265   0.016645  -0.000099  -0.000000   0.000004  -0.000663
    13  C    0.443613  -0.078752   0.001314   0.000009   0.000000  -0.000049
    14  C   -0.079012   0.439832  -0.023298  -0.000534   0.000022  -0.000262
    15  C    0.016750  -0.086187  -0.079294   0.015909  -0.001781   0.017009
    16  C   -0.000605  -0.019939   0.440616  -0.079282   0.015765  -0.001491
    17  C    0.000013   0.001102  -0.082568   0.436174  -0.088317   0.014827
    18  C   -0.000001  -0.000086   0.016139  -0.084869   0.438549  -0.069514
    19  C    0.000034  -0.000289  -0.002256   0.015277  -0.075362   0.417706
    20  C   -0.001687   0.015733   0.016556  -0.001220   0.015794  -0.054108
    21  C    0.014859  -0.001395  -0.000120   0.000046  -0.000259  -0.027568
    22  C   -0.000094   0.000041   0.000007  -0.000001  -0.000003   0.008493
    23  H    0.000000  -0.000000  -0.000000  -0.000000  -0.000000   0.000004
    24  H   -0.000000   0.000000   0.000000  -0.000000   0.000011   0.000012
    25  H   -0.000001  -0.000002  -0.000003   0.000004   0.000012  -0.004018
    26  H   -0.000000   0.000000   0.000000  -0.000000   0.000000  -0.000003
    27  H   -0.000000   0.000000   0.000000  -0.000000   0.000000  -0.000002
    28  H   -0.000000  -0.000000  -0.000000   0.000000  -0.000000  -0.000001
    29  H   -0.000021  -0.000000  -0.000000   0.000000  -0.000000  -0.000000
    30  H    0.005844  -0.000024  -0.000000  -0.000000   0.000000   0.000000
    31  H    0.678130  -0.012841  -0.000016  -0.000000   0.000000  -0.000000
    32  H   -0.012841   0.681545   0.006503  -0.000020  -0.000001   0.000011
    33  H   -0.000016   0.006503   0.678641  -0.012568  -0.000348   0.000026
    34  H   -0.000000  -0.000020  -0.012568   0.674211  -0.012282  -0.000329
    35  H    0.000000  -0.000001  -0.000348  -0.012282   0.669827  -0.012875
    36  H   -0.000000   0.000011   0.000026  -0.000329  -0.012875   0.643063
 Mulliken charges:
               1
     1  C   -0.036911
     2  C   -0.042477
     3  C   -0.174768
     4  C    0.079757
     5  C    0.170645
     6  C   -0.142021
     7  C   -0.137517
     8  C   -0.144662
     9  C    0.162884
    10  C   -0.138882
    11  C   -0.138882
    12  C    0.162884
    13  C   -0.144662
    14  C   -0.137517
    15  C    0.170645
    16  C   -0.142021
    17  C   -0.036911
    18  C   -0.042477
    19  C   -0.174768
    20  C    0.079757
    21  C    0.073930
    22  C    0.073930
    23  H    0.049473
    24  H    0.051081
    25  H    0.068023
    26  H    0.040770
    27  H    0.038716
    28  H    0.041592
    29  H    0.040365
    30  H    0.040365
    31  H    0.041592
    32  H    0.038716
    33  H    0.040770
    34  H    0.049473
    35  H    0.051081
    36  H    0.068023
 Sum of Mulliken charges =  -0.00000
 Mulliken charges with hydrogens summed into heavy atoms:
               1
     1  C    0.012562
     2  C    0.008604
     3  C   -0.106744
     4  C    0.079757
     5  C    0.170645
     6  C   -0.101251
     7  C   -0.098801
     8  C   -0.103070
     9  C    0.162884
    10  C   -0.098517
    11  C   -0.098517
    12  C    0.162884
    13  C   -0.103070
    14  C   -0.098801
    15  C    0.170645
    16  C   -0.101251
    17  C    0.012562
    18  C    0.008604
    19  C   -0.106744
    20  C    0.079757
    21  C    0.073930
    22  C    0.073930
 Electronic spatial extent (au):  <R**2>=           5904.0576
 Charge=              0.0000 electrons
 Dipole moment (field-independent basis, Debye):
    X=             -0.0000    Y=              0.0000    Z=              0.0615  Tot=              0.0615
 Quadrupole moment (field-independent basis, Debye-Ang):
   XX=           -131.8163   YY=           -112.6199   ZZ=           -112.9071
   XY=             -2.8454   XZ=              0.0000   YZ=             -0.0000
 Traceless Quadrupole moment (field-independent basis, Debye-Ang):
   XX=            -12.7018   YY=              6.4945   ZZ=              6.2073
   XY=             -2.8454   XZ=              0.0000   YZ=             -0.0000
 Octapole moment (field-independent basis, Debye-Ang**2):
  XXX=              0.0000  YYY=              0.0000  ZZZ=              6.8798  XYY=              0.0000
  XXY=              0.0000  XXZ=             -7.3651  XZZ=              0.0000  YZZ=              0.0000
  YYZ=             -3.9911  XYZ=            -13.3156
 Hexadecapole moment (field-independent basis, Debye-Ang**3):
 XXXX=           -414.5209 YYYY=          -4545.0322 ZZZZ=          -2750.1446 XXXY=           -135.9287
 XXXZ=              0.0000 YYYX=           -191.5633 YYYZ=              0.0000 ZZZX=             -0.0000
 ZZZY=              0.0000 XXYY=           -957.0695 XXZZ=           -572.7555 YYZZ=          -1209.2668
 XXYZ=              0.0000 YYXZ=              0.0000 ZZXY=            -26.2814
 N-N= 1.597885233984D+03 E-N=-5.153719767905D+03  KE= 8.375618929029D+02
 Symmetry A    KE= 4.203125157551D+02
 Symmetry B    KE= 4.172493771478D+02
   2 Symmetry operations used in ECPInt.
 ECPInt:  NShTT=   12880 NPrTT=   51688 LenC2=   12113 LenP2D=   33269.
 LDataN:  DoStor=T MaxTD1= 5 Len=  102
 Calling FoFJK, ICntrl=      2127 FMM=F ISym2X=1 I1Cent= 0 IOpClX= 0 NMat=1 NMatS=1 NMatT=0.
 ***** Axes restored to original set *****
 -------------------------------------------------------------------
 Center     Atomic                   Forces (Hartrees/Bohr)
 Number     Number              X              Y              Z
 -------------------------------------------------------------------
      1        6          -0.019723878    0.005546606    0.007485486
      2        6           0.017605208    0.019105186   -0.001256157
      3        6           0.005837319   -0.010057315   -0.002717188
      4        6           0.017181465   -0.009568927   -0.002796843
      5        6           0.000409784   -0.012331970    0.001797457
      6        6           0.006264027   -0.020047567   -0.006942100
      7        6          -0.007009530    0.046499081    0.005653959
      8        6          -0.032979063   -0.031408442    0.002546243
      9        6           0.008015133   -0.004747405    0.000117123
     10        6           0.030885287    0.027675907   -0.006375458
     11        6          -0.040086270    0.011920882    0.003389217
     12        6          -0.005112443   -0.007744436    0.000824965
     13        6           0.043476965   -0.013769693    0.000860922
     14        6          -0.013910408    0.043530691   -0.012443666
     15        6           0.005099730   -0.011378441   -0.000009307
     16        6           0.002936767   -0.019548412    0.009928280
     17        6           0.015528943    0.012506461   -0.008846980
     18        6          -0.024231429    0.009411017   -0.000894428
     19        6          -0.000921594   -0.011097701    0.004312620
     20        6          -0.011326517   -0.015628072    0.004697106
     21        6          -0.010534292   -0.009844938   -0.002412049
     22        6           0.013698592   -0.003772750    0.003439044
     23        1          -0.002893785   -0.004930855    0.000189584
     24        1           0.003574544   -0.002545143   -0.002691220
     25        1           0.002733364    0.002533451    0.002562831
     26        1          -0.004045807    0.003446944    0.001615698
     27        1          -0.003794899   -0.003366861    0.001358095
     28        1           0.000872930    0.005175618    0.000250700
     29        1          -0.005042808    0.000563786    0.001456036
     30        1           0.004329816    0.002504604   -0.001687442
     31        1          -0.003045498    0.004174113   -0.000955822
     32        1           0.004929661   -0.001516632   -0.000989800
     33        1           0.002175260    0.004603029   -0.002222797
     34        1           0.004767633   -0.003133324    0.000418586
     35        1          -0.002183087   -0.003443044    0.003142827
     36        1          -0.003481121    0.000684550   -0.002805521
 -------------------------------------------------------------------
 Cartesian Forces:  Max     0.046499081 RMS     0.012847275

 GradGradGradGradGradGradGradGradGradGradGradGradGradGradGradGradGradGrad
 Berny optimization.
 FormGI is forming the generalized inverse of G from B-inverse, IUseBI=4.
 Internal  Forces:  Max     0.034097982 RMS     0.007336536
 Search for a local minimum.
 Step number   1 out of a maximum of  216
 All quantities printed in internal units (Hartrees-Bohrs-Radians)
 Mixed Optimization -- RFO/linear search
 Second derivative matrix not updated -- first step.
 ITU=  0
     Eigenvalues ---    0.01460   0.01571   0.01641   0.01680   0.01769
     Eigenvalues ---    0.01803   0.01835   0.01956   0.01957   0.02001
     Eigenvalues ---    0.02002   0.02042   0.02049   0.02050   0.02069
     Eigenvalues ---    0.02070   0.02107   0.02107   0.02179   0.02180
     Eigenvalues ---    0.02193   0.02193   0.02195   0.02197   0.02215
     Eigenvalues ---    0.02215   0.02223   0.02224   0.02247   0.02248
     Eigenvalues ---    0.02248   0.02260   0.02260   0.15929   0.15929
     Eigenvalues ---    0.15956   0.15977   0.15983   0.15983   0.15991
     Eigenvalues ---    0.15991   0.15993   0.15993   0.15999   0.15999
     Eigenvalues ---    0.15999   0.15999   0.21994   0.21994   0.22312
     Eigenvalues ---    0.22377   0.22526   0.22638   0.22747   0.23833
     Eigenvalues ---    0.24067   0.24271   0.24298   0.24561   0.24577
     Eigenvalues ---    0.24671   0.24674   0.34188   0.34989   0.34989
     Eigenvalues ---    0.35009   0.35009   0.35013   0.35013   0.35027
     Eigenvalues ---    0.35027   0.35101   0.35101   0.35199   0.35199
     Eigenvalues ---    0.35250   0.35250   0.35941   0.35962   0.36877
     Eigenvalues ---    0.37902   0.39308   0.40205   0.40397   0.40538
     Eigenvalues ---    0.43182   0.43188   0.44756   0.44778   0.45287
     Eigenvalues ---    0.45312   0.45333   0.45587   0.45813   0.45910
     Eigenvalues ---    0.46103   0.46105   0.47235   0.47239   0.47442
     Eigenvalues ---    0.47625   0.47625
 RFO step:  Lambda=-2.86062916D-02 EMin= 1.46002395D-02
 Linear search not attempted -- first point.
 Iteration  1 RMS(Cart)=  0.13211088 RMS(Int)=  0.00170584
 Iteration  2 RMS(Cart)=  0.00542229 RMS(Int)=  0.00014896
 Iteration  3 RMS(Cart)=  0.00000829 RMS(Int)=  0.00014892
 Iteration  4 RMS(Cart)=  0.00000000 RMS(Int)=  0.00014892
 ClnCor:  largest displacement from symmetrization is 8.81D-12 for atom    33.
 Variable       Old X    -DE/DX   Delta X   Delta X   Delta X     New X
                                 (Linear)    (Quad)   (Total)
    R1        2.61578   0.02394   0.00000   0.04653   0.04653   2.66231
    R2        2.62799  -0.00423   0.00000  -0.00801  -0.00797   2.62002
    R3        2.05272   0.00564   0.00000   0.01481   0.01481   2.06752
    R4        2.64350  -0.01067   0.00000  -0.02262  -0.02267   2.62083
    R5        2.05353   0.00485   0.00000   0.01274   0.01274   2.06627
    R6        2.67929  -0.00104   0.00000  -0.00282  -0.00286   2.67643
    R7        2.05661   0.00205   0.00000   0.00540   0.00540   2.06201
    R8        2.68415   0.01319   0.00000   0.02961   0.02960   2.71374
    R9        2.75364  -0.00558   0.00000  -0.01449  -0.01452   2.73912
   R10        2.65715   0.01001   0.00000   0.02179   0.02183   2.67898
   R11        2.62757   0.03410   0.00000   0.06865   0.06866   2.69622
   R12        2.05654   0.00375   0.00000   0.00991   0.00991   2.06646
   R13        2.62117  -0.01463   0.00000  -0.02848  -0.02846   2.59271
   R14        2.05511   0.00436   0.00000   0.01149   0.01149   2.06659
   R15        2.64226   0.02845   0.00000   0.05818   0.05821   2.70046
   R16        2.05693   0.00344   0.00000   0.00908   0.00908   2.06600
   R17        2.63195   0.02915   0.00000   0.05919   0.05926   2.69121
   R18        2.68239   0.00885   0.00000   0.01863   0.01859   2.70098
   R19        2.61792  -0.01164   0.00000  -0.02199  -0.02187   2.59604
   R20        2.05631   0.00378   0.00000   0.00997   0.00997   2.06628
   R21        2.63195   0.02915   0.00000   0.05919   0.05926   2.69121
   R22        2.05631   0.00378   0.00000   0.00997   0.00997   2.06628
   R23        2.64226   0.02845   0.00000   0.05818   0.05821   2.70046
   R24        2.68239   0.00885   0.00000   0.01863   0.01859   2.70098
   R25        2.62117  -0.01463   0.00000  -0.02848  -0.02846   2.59271
   R26        2.05693   0.00344   0.00000   0.00908   0.00908   2.06600
   R27        2.62757   0.03410   0.00000   0.06865   0.06866   2.69622
   R28        2.05511   0.00436   0.00000   0.01149   0.01149   2.06659
   R29        2.65715   0.01001   0.00000   0.02179   0.02183   2.67898
   R30        2.68415   0.01319   0.00000   0.02961   0.02960   2.71374
   R31        2.62799  -0.00423   0.00000  -0.00801  -0.00797   2.62002
   R32        2.05654   0.00375   0.00000   0.00991   0.00991   2.06646
[...]
 6,0.00000073,0.00000456,0.00000181,-0.00000180,0.00001058,-0.00000466,
 -0.00000048,0.00004305,0.00001123,0.00010987,0.00024779,-0.00027330,0.
 00017281,-0.02289141,-0.08729858,0.05228946,-0.00000366,-0.00001434,-0
 .00000434,-0.00001103,0.00000772,-0.00000075,-0.00001313,-0.00001026,-
 0.00002459,-0.00002390,0.00002487,0.00002284,-0.00000368,-0.00002941,-
 0.00000775,0.00001082,-0.00000014,-0.00000226,-0.00000523,-0.00000014,
 -0.00000191,0.00002046,-0.00002000,0.00000786,0.00004073,0.00004070,-0
 .00002311,-0.00017952,0.00035357,-0.00007279,-0.00079062,-0.00075098,0
 .00017289,-0.00024669,0.00405840,0.00032052,-0.01712217,-0.00786518,0.
 00509558,-0.30914677,-0.05920496,0.05562427,-0.00416709,0.00046869,0.0
 0079595,0.00052084,0.00166214,-0.00125845,0.00008752,-0.00034728,0.000
 18208,0.00030789,0.00000607,-0.00010437,-0.00043941,0.00027059,-0.0001
 2131,0.00129580,-0.00066766,0.00067224,0.00049619,0.00019575,-0.000010
 55,0.00003283,-0.00005189,-0.00013206,-0.00000328,-0.00000730,-0.00000
 012,0.00000414,-0.00000894,0.00000148,-0.00000130,0.00001554,0.0000237
 0,-0.00000766,-0.00000284,0.00000277,-0.00000879,-0.00000666,0.0000008
 5,-0.00000255,0.00000736,0.00000386,-0.00009966,-0.00002347,0.00004252
 ,0.00003336,0.00004509,0.00000166,0.00095985,-0.00009253,-0.00086347,0
 .32791249,-0.00002874,0.00001188,0.00001467,0.00001218,0.00004652,-0.0
 0000867,0.00002673,-0.00004005,-0.00003286,0.00004726,0.00004409,0.000
 01433,-0.00002881,0.00003847,0.00001600,-0.00000681,-0.00003390,-0.000
 00292,0.00003116,-0.00007060,-0.00002672,0.00004891,0.00008017,0.00001
 084,-0.00007500,-0.00024783,0.00010460,0.00032583,-0.00012406,-0.00022
 216,0.00047353,0.00074675,-0.00003969,0.00267420,-0.00258422,0.0029254
 8,0.02227263,0.00921704,-0.00418591,-0.05976900,-0.07031258,0.01901278
 ,-0.02657241,-0.00247870,0.00504744,-0.00193897,0.00073423,-0.00129592
 ,0.00027516,0.00007354,-0.00007819,-0.00001014,0.00006220,-0.00007836,
 -0.00151610,0.00009263,0.00002573,0.00056114,-0.00363607,0.00330071,0.
 00051248,-0.00056258,0.00010097,-0.00021212,0.00005470,-0.00028856,-0.
 00000163,0.00000042,0.00000281,0.00000007,0.00000010,0.00000188,-0.000
 00130,0.00001447,0.00003462,0.00000119,-0.00000065,0.00000117,0.000001
 56,0.00000202,0.00000339,-0.00000602,-0.00000218,0.00000025,0.00009929
 ,0.00001611,-0.00006371,-0.00001095,-0.00002054,0.00005918,-0.00076800
 ,0.00057378,-0.00171473,0.06250000,0.06887045,-0.00003223,0.00000850,0
 .00000711,0.00003536,0.00002925,-0.00002012,0.00002111,-0.00004732,-0.
 00001681,-0.00001759,0.00012400,0.00008623,-0.00007239,0.00004028,0.00
 003130,0.00000272,-0.00003201,-0.00000079,0.00000745,-0.00008591,-0.00
 003086,0.00007585,0.00003626,0.00001183,-0.00001855,-0.00024118,0.0001
 8573,0.00015475,0.00009577,-0.00055974,-0.00057427,0.00011393,0.000240
 26,0.00030571,0.00173989,0.00834816,-0.00345789,-0.00059409,0.00547420
 ,0.05469757,0.01854107,-0.05112729,0.01106003,0.00268690,0.00117644,0.
 00046934,-0.00140438,-0.00190912,-0.00023527,-0.00010962,0.00000318,0.
 00002476,-0.00003024,-0.00008095,0.00063100,-0.00013100,0.00015685,-0.
 00105144,0.00363650,0.00264732,-0.00005458,0.00009923,-0.00043694,-0.0
 0020766,-0.00023637,-0.00071927,0.00000057,-0.00000002,-0.00000030,0.0
 0000113,-0.00000435,0.00000368,-0.00000170,0.00000230,-0.00001071,0.00
 000109,-0.00000300,0.00000415,0.00000154,-0.00000228,0.00000629,-0.000
 00224,-0.00000058,-0.00000168,-0.00000597,0.00000225,-0.00002998,0.000
 04196,0.00002309,0.00013243,-0.00063581,-0.00165422,-0.00487975,-0.060
 71566,-0.02308445,0.04113222,-0.00001267,-0.00000612,0.00000201,-0.000
 00401,0.00002142,-0.00000176,-0.00000306,-0.00003258,-0.00003097,0.000
 02118,0.00003941,0.00001345,-0.00000620,-0.00000862,-0.00000674,0.0000
 0656,-0.00001235,-0.00000406,0.00000528,-0.00000615,-0.00000375,0.0000
 0749,0.00002841,0.00001122,-0.00007373,-0.00008639,-0.00001305,0.00000
 680,0.00005692,-0.00001113,0.00003256,0.00001971,0.00000958,0.00018975
 ,-0.00009560,-0.00005029,0.00014055,0.00035107,-0.00016073,0.00076194,
 -0.00244166,0.00043877,-0.01860057,-0.00727401,0.00607375,-0.30251224,
 -0.06330892,0.06070832,-0.00197583,0.00093400,0.00001729,0.00167834,-0
 .00087532,0.00096275,0.00059878,0.00037438,-0.00042303,-0.00083079,0.0
 0388791,-0.00125669,-0.00066311,-0.00092195,0.00038368,-0.00014053,0.0
 0033408,-0.00007915,-0.00000356,-0.00000621,0.00000140,0.00000268,-0.0
 0000775,0.00000132,0.00000314,0.00002578,0.00003983,-0.00000596,-0.000
 00231,0.00000233,-0.00000704,-0.00000433,-0.00000009,-0.00001454,0.000
 00365,0.00000606,-0.00000470,0.00000521,-0.00000490,-0.00000769,0.0000
 2764,0.00000037,-0.00002663,0.00004914,0.00001710,0.00051921,0.0010468
 3,-0.00042355,0.32044677,0.00000586,0.00000612,-0.00000579,-0.00000413
 ,0.00001254,-0.00000720,-0.00000415,0.00000885,0.00002050,-0.00001324,
 0.00000642,-0.00003580,-0.00000524,0.00000546,-0.00001153,0.00000255,0
 .00000215,0.00000037,-0.00000327,-0.00000500,0.00000182,0.00001058,-0.
 00002489,-0.00003116,0.00005712,0.00001366,-0.00000022,0.00002021,0.00
 002519,-0.00000384,-0.00008411,-0.00002361,0.00001337,0.00018818,0.000
 14056,-0.00009108,-0.00030630,0.00015433,0.00001324,0.00162244,0.00016
 623,-0.00206174,0.01717499,0.00776765,-0.00404732,-0.06345258,-0.07194
 401,0.02415559,-0.02649567,-0.00119610,0.00566145,0.00023607,-0.002378
 70,0.00541541,0.00051383,-0.00131015,0.00020366,0.00284252,-0.00087159
 ,0.00280147,0.00090162,0.00053360,-0.00007855,0.00006069,-0.00022236,0
 .00019508,-0.00000002,-0.00000172,0.00000174,0.00000184,-0.00000123,0.
 00000752,0.00001542,-0.00000502,0.00002553,-0.00000034,0.00000036,0.00
 000249,0.00000003,-0.00000078,0.00000389,0.00000741,0.00000338,-0.0000
 0097,-0.00000514,-0.00000085,0.00000325,0.00000956,-0.00000858,0.00000
 330,-0.00000727,0.00004735,0.00009530,-0.00040949,-0.00028015,0.000239
 28,0.06834631,0.06969455,-0.00001377,0.00000353,0.00000274,0.00001676,
 0.00001347,-0.00000307,-0.00003278,-0.00001282,0.00000894,0.00000790,0
 .00000759,-0.00002937,0.00000668,0.00000577,-0.00002126,-0.00000265,-0
 .00001304,-0.00000082,0.00000631,0.00000425,0.00000188,-0.00001538,0.0
 0001825,-0.00002269,-0.00002821,-0.00003079,0.00000787,-0.00000249,-0.
 00000156,-0.00000191,0.00004431,0.00002882,0.00001699,-0.00008554,-0.0
 0011349,-0.00003613,0.00013363,-0.00010876,-0.00001137,-0.00083231,-0.
 00128961,-0.00266179,-0.00942089,-0.00057382,0.00475320,0.06058432,0.0
 2198555,-0.05423882,0.01586517,0.00444775,0.00031566,-0.00037546,0.005
 71994,0.00465009,-0.00002372,-0.00102643,-0.00005655,0.00042208,0.0036
 4707,0.00321167,-0.00032050,-0.00004623,0.00011189,-0.00007134,0.00012
 377,0.00016818,0.00000045,0.00000156,0.00000086,-0.00000289,-0.0000038
 4,-0.00000097,0.00002116,0.00000914,0.00003077,0.00000302,-0.00000114,
 0.00000129,0.00000265,0.00000074,0.00000366,-0.00000187,-0.00000326,0.
 00000150,0.00000440,-0.00000068,-0.00000345,-0.00000445,-0.00000092,0.
 00000365,0.00005087,0.00001159,0.00016621,0.00023971,0.00011657,0.0000
 9943,-0.06595905,-0.03004545,0.04766053,-0.00001015,0.00000060,0.00000
 807,0.00000010,0.00005092,0.00000528,-0.00001830,0.00001017,-0.0000335
 3,-0.00002246,0.00000055,-0.00001622,0.00004981,0.00001003,-0.00002138
 ,0.00000109,-0.00001842,0.00000068,-0.00000856,0.00001268,0.00000407,-
 0.00000390,-0.00001146,0.00000125,0.00000071,0.00001653,-0.00000795,-0
 .00003545,-0.00002739,0.00000186,0.00005385,-0.00001203,0.00000674,-0.
 00015590,-0.00003538,0.00004737,0.00015329,-0.00009308,-0.00006243,0.0
 0017872,0.00000971,0.00003421,0.00079924,-0.00134460,0.00159296,0.0082
 9755,-0.00548461,0.00262678,-0.21247560,0.12943151,-0.04993634,-0.0159
 4764,0.02005557,-0.00921501,-0.00405616,-0.00218032,0.00301758,0.00017
 949,-0.00086671,0.00044895,-0.00003755,0.00009324,-0.00018446,0.000052
 22,-0.00000590,-0.00003184,-0.00000863,-0.00000735,-0.00000147,0.00000
 143,-0.00001155,-0.00000661,-0.00000972,0.00001183,0.00003593,-0.00000
 576,-0.00000173,0.00000113,-0.00000614,-0.00000141,0.00000051,-0.00000
 441,0.00000485,0.00000193,-0.00000560,0.00000442,0.00000235,-0.0000005
 1,0.00001007,0.00000103,0.00001665,-0.00002707,-0.00001467,0.00000725,
 0.00000895,0.00001474,0.00075712,0.00010885,-0.00073670,0.22180270,0.0
 0001914,0.00000093,-0.00001066,-0.00001059,-0.00001469,0.00000417,-0.0
 0000602,0.00002810,0.00002649,0.00003519,0.00000036,0.00001724,0.00000
 738,-0.00001606,0.00000467,-0.00000945,0.00002024,0.00000725,0.0000055
 6,0.00001558,-0.00000035,-0.00002050,0.00000775,0.00000438,0.00003464,
 0.00004420,0.00000208,-0.00004476,-0.00003875,0.00000487,0.00006849,0.
 00001095,0.00000851,-0.00026914,-0.00003677,0.00015653,-0.00001633,-0.
 00054213,-0.00008669,0.00113342,0.00010369,0.00008659,-0.00251342,-0.0
 0142783,0.00556521,0.02170375,-0.01171015,0.00617113,0.12884019,-0.160
 08014,0.05248716,-0.00668479,0.00773242,-0.00160942,-0.00118047,0.0020
 1474,0.00238748,-0.00042255,-0.00028542,-0.00017415,-0.00020200,0.0000
 4346,-0.00047837,0.00004850,0.00002297,-0.00007511,0.00000091,0.000003
 87,-0.00000061,-0.00000304,-0.00000139,-0.00000118,-0.00000019,-0.0000
 0060,-0.00000577,0.00000453,0.00000010,-0.00000094,0.00000420,0.000002
 85,-0.00000005,0.00000300,-0.00000454,-0.00000107,0.00000973,-0.000001
 46,0.00000533,-0.00000816,-0.00000226,-0.00000228,0.00009088,-0.000108
 48,-0.00004030,-0.00004030,0.00001853,0.00006705,-0.00049089,-0.000063
 47,-0.00252873,-0.14003423,0.16447729,0.00003728,-0.00001013,-0.000027
 48,-0.00002930,-0.00002666,0.00001649,0.00003208,0.00001660,0.00004166
 ,0.00008531,0.00010191,0.00003949,-0.00006817,-0.00002209,0.00002066,0
 .,0.00004040,0.00001230,-0.00002114,-0.00001676,0.00000189,0.00003002,
 0.00000652,-0.00001190,-0.00001531,-0.00001200,0.00000735,-0.00002515,
 0.00000751,-0.00000711,-0.00001112,-0.00001567,0.00004458,0.00000334,-
 0.00000610,0.00008852,0.00010445,0.00004139,-0.00046107,-0.00081929,0.
 00039403,0.00007467,0.00174777,0.00523270,0.00530286,-0.01292046,0.008
 90846,0.00057707,-0.04992113,0.05294898,-0.06128382,0.00671915,-0.0053
 8345,0.00554549,0.00230083,0.00268501,0.00370278,0.00056730,0.00005330
 ,-0.00070782,-0.00021491,-0.00034636,-0.00065053,-0.00001857,0.0001030
 8,-0.00006738,-0.00000197,-0.00000113,-0.00000152,-0.00000411,-0.00001
 116,-0.00000149,0.00001314,0.00003507,0.00000017,0.00000117,-0.0000008
 9,0.00000123,0.00000034,-0.00000307,0.00000013,-0.00000412,-0.00000034
 ,0.00000260,-0.00000152,0.00000225,0.00001007,0.00000017,-0.00000275,-
 0.00000005,-0.00005169,0.00004021,-0.00001467,0.00005156,0.00002318,0.
 00009040,-0.00025196,-0.00257146,-0.00341931,0.05322663,-0.06023139,0.
 05291111,-0.00003208,-0.00002662,0.00002281,0.00003743,-0.00004842,0.0
 0003569,0.00003358,0.00000351,0.00003641,-0.00000862,0.00007522,-0.000
 00305,-0.00000579,0.00002333,-0.00001170,0.00000001,-0.00002244,0.0000
 0828,-0.00002073,-0.00000632,0.00000750,0.00001691,0.00000237,-0.00000
 348,-0.00001018,-0.00006511,-0.00000795,0.00004055,0.00003714,-0.00000
 372,0.00001420,0.00010007,0.00001641,-0.00017597,0.00015659,-0.0001025
 6,-0.00013124,0.00000985,0.00001149,0.00015208,-0.00021681,-0.00006682
 ,-0.00082077,0.00046395,-0.00016839,-0.00515974,0.00013224,0.00161311,
 -0.00091240,-0.02521005,0.01637143,-0.06912182,-0.04391532,0.03342490,
 0.00803747,0.02046370,-0.01389221,-0.00329965,0.00281652,-0.00022609,0
 .00073464,0.00064391,-0.00048029,0.00000217,-0.00000584,0.00009683,-0.
 00000436,0.00000015,-0.00000879,-0.00000003,-0.00000617,-0.00002316,0.
 00002335,0.00002962,0.00001604,-0.00000041,-0.00000183,-0.00000404,-0.
 00000017,-0.00000030,-0.00000099,-0.00000420,-0.00000261,0.00000106,-0
 .00000205,0.00000014,-0.00000384,-0.00002194,0.00002491,-0.00000144,0.
 00001379,-0.00000290,0.00000914,0.00002559,0.00006938,-0.00002534,-0.0
 0021249,-0.00125570,0.00056742,0.00123196,0.00027413,-0.00086949,0.068
 52078,0.00001179,0.00002761,-0.00001085,-0.00000035,-0.00000014,-0.000
 02485,-0.00008747,0.00002272,0.00005653,-0.00009636,-0.00006210,-0.000
 08829,0.00009384,-0.00000855,-0.00001575,-0.00000667,0.00000886,-0.000
 00825,-0.00000042,0.00006204,0.00000670,-0.00006792,-0.00002962,0.0000
 0544,0.00003879,0.00007761,-0.00001519,-0.00003876,-0.00009504,0.00002
 006,0.00001593,-0.00008146,-0.00003813,0.00004906,-0.00031303,-0.00008
 208,0.00037864,-0.00002210,0.00006873,-0.00011720,0.00017779,-0.000529
 68,0.00047737,-0.00001898,-0.00044588,-0.00093743,0.00278769,0.0020548
 1,0.00066985,-0.00161574,0.00291618,-0.04257556,-0.23761539,0.13249831
 ,-0.00611408,-0.01063517,0.01037075,0.00372758,0.00111148,0.00378132,-
 0.00092373,-0.00004343,0.00037117,0.00002206,-0.00003004,0.00002017,0.
 00000854,0.00000571,0.00000744,-0.00000032,0.00000692,0.00001755,0.000
 00967,-0.00003785,-0.00002195,0.00000863,0.00000126,0.00000213,0.00000
 887,0.00000488,0.00000453,0.00000897,-0.00000510,-0.00000207,0.0000118
 0,-0.00000345,0.00000613,0.00002024,-0.00003418,-0.00001454,0.00000574
 ,-0.00001698,0.00002702,-0.00001238,-0.00000392,0.00001916,0.00011847,
 -0.00005607,0.00018198,-0.00055667,-0.00039381,-0.00172526,0.04614728,
 0.24749530,-0.00007692,-0.00004111,0.00003252,0.00004077,0.00002865,0.
 00004883,-0.00007391,-0.00001349,0.00003708,-0.00016973,0.00000002,-0.
 00008451,0.00016552,0.00003528,-0.00008058,0.00002120,-0.00005779,-0.0
 0002116,-0.00005849,0.00008093,0.00003040,-0.00003720,-0.00007423,0.00
 000384,0.00002140,0.00009057,-0.00007576,-0.00009682,-0.00004488,0.000
 02466,0.00008015,-0.00007585,-0.00002180,-0.00045151,-0.00023562,-0.00
 030878,0.00043886,-0.00005304,0.00008756,-0.00014270,0.00011289,-0.000
 75814,0.00005936,-0.00116211,-0.00006404,0.00235542,0.00200254,0.00385
 435,-0.00109761,0.00647765,-0.00062259,0.03427986,0.13248104,-0.125848
 57,0.00202547,0.00771032,-0.00114162,-0.00065835,0.00255658,0.00647257
 ,-0.00010970,0.00076746,0.00001136,0.00017260,0.00007457,0.00010482,-0
 .00000784,-0.00000291,-0.00000280,-0.00001104,-0.00003651,-0.00006467,
 0.00003647,0.00005968,-0.00000923,0.00000331,-0.00000654,-0.00000037,0
 .00000077,-0.00000122,0.00000322,-0.00000200,-0.00000241,0.00000224,-0
 .00000326,-0.00000147,0.00000737,-0.00000121,0.00000483,-0.00001238,0.
 00000700,0.00001623,0.00003702,0.00001402,0.00000145,0.00003018,0.0000
 1424,0.00052026,0.00001241,-0.00039281,-0.00173028,-0.00203057,-0.0358
 7041,-0.14677731,0.12349793,-0.00046708,0.00021017,0.00030991,0.000519
 62,0.00085453,-0.00049471,-0.00182364,-0.00105189,-0.00302428,-0.00234
 320,0.00093305,-0.00248360,0.00043704,0.00043359,-0.00018276,-0.000111
 23,-0.00064661,-0.00000546,0.00004311,-0.00004903,0.00003674,0.0000334
 9,0.00007483,-0.00002439,-0.00000104,0.00002903,0.00017630,-0.00004705
 ,-0.00003385,0.00000657,0.00000074,-0.00004816,-0.00001729,-0.00006408
 ,-0.00021547,0.00014404,0.00017251,-0.00000860,-0.00001729,-0.00016438
 ,0.00029037,0.00001758,0.00154957,-0.00007746,0.00109021,0.00061778,0.
 00041896,-0.00054884,-0.00128407,0.00378362,-0.00110960,-0.01732777,-0
 .00699410,0.00739360,-0.30518730,-0.05699904,0.08397356,-0.00112778,-0
 .00091238,0.00002299,-0.00063833,0.00043445,-0.00062022,-0.00000160,0.
 00028481,-0.00061713,-0.00000525,0.00000201,0.00002701,0.00002491,0.00
 002948,0.00005647,-0.00006475,-0.00006617,0.00028144,0.00001551,-0.000
 00084,0.00002287,0.00000614,-0.00000147,0.00000025,0.00000439,-0.00000
 423,-0.00002247,0.00000760,-0.00000708,0.00000390,0.00000458,-0.000012
 65,0.00000274,0.00000746,-0.00001919,-0.00000932,0.00000116,-0.0000424
 8,-0.00001454,-0.00007279,-0.00007943,-0.00004688,-0.00077074,-0.00032
 681,0.00032887,0.00106012,-0.00029778,-0.00047494,0.32699636,0.0000254
 8,-0.00007078,0.00004762,-0.00000587,-0.00019912,-0.00020346,-0.000591
 49,0.00034713,-0.00058761,0.00056501,0.00071888,0.00038583,0.00011036,
 0.00001378,-0.00010836,-0.00004788,0.00008896,0.00002917,-0.00003949,0
 .00008140,0.00003777,-0.00001402,-0.00004431,0.00005852,0.00023479,-0.
 00016211,-0.00010353,0.00004862,0.00001849,-0.00002881,-0.00005302,0.0
 0012780,0.00007532,-0.00023764,-0.00030175,0.00002518,0.00008926,-0.00
 001998,-0.00005876,-0.00117164,0.00025713,-0.00000745,0.00099095,-0.00
 258540,0.00495764,-0.00001907,-0.00032409,-0.00018069,0.00267845,-0.00
 022497,0.00474305,0.02033694,0.00824196,-0.00498103,-0.05758976,-0.065
 65719,0.02824625,-0.02436963,-0.00314365,0.00697420,-0.00122259,0.0006
 0353,-0.00168835,0.00010951,-0.00043501,-0.00007811,-0.00000799,-0.000
 00751,-0.00002480,0.00000413,-0.00004228,-0.00003247,0.00003993,0.0000
 7654,-0.00002876,-0.00000788,-0.00001933,0.00000813,-0.00001344,0.0000
 0209,-0.00000511,-0.00001776,0.00000378,0.00000919,0.00000354,0.000022
 40,-0.00000745,0.00000210,0.00000481,-0.00000306,0.00004196,-0.0000187
 3,0.00000871,-0.00009032,-0.00030007,0.00015631,-0.00008921,-0.0001941
 1,-0.00052679,0.00087944,0.00017993,-0.00025395,-0.00068758,-0.0006677
 4,-0.00270417,0.06011582,0.06362953,0.00005120,-0.00001316,-0.00007362
 ,-0.00002130,-0.00023114,0.00009504,-0.00121860,-0.00064441,-0.0022091
 9,-0.00099443,0.00094089,-0.00064261,-0.00050800,-0.00012119,0.0001335
 9,0.00005435,0.00019764,-0.00005817,-0.00007043,-0.00013291,-0.0000084
 9,0.00021763,0.00000541,-0.00005160,-0.00020060,0.00001410,0.00005273,
 -0.00011605,0.00002781,-0.00003487,-0.00005412,-0.00014045,0.00013402,
 -0.00013384,-0.00043057,0.00020654,0.00025280,-0.00007809,-0.00018810,
 0.00099542,0.00008312,0.00018264,0.00021786,0.00471203,0.00225028,-0.0
 0086568,0.00073807,-0.00091412,-0.00106018,0.00368511,0.00550454,-0.00
 823486,-0.00112129,0.00696375,0.08128931,0.02861779,-0.06965818,0.0159
 0304,0.00092299,0.00073775,-0.00073053,-0.00114371,-0.00239159,-0.0000
 8019,0.00089870,-0.00024808,0.00003103,0.00002227,0.00000261,0.0000053
 8,0.00003254,-0.00000637,0.00023961,0.00011683,-0.00014254,0.00004810,
 0.00000194,0.00003270,0.00003936,-0.00002244,-0.00000578,-0.00000419,-
 0.00001961,-0.00000180,-0.00000368,-0.00002143,0.00000859,-0.00000253,
 -0.00000863,0.00000390,-0.00002572,0.00001442,0.00000208,0.00006712,0.
 00030479,-0.00004308,-0.00002260,-0.00039242,-0.00072193,-0.00041861,-
 0.00002882,0.00019321,-0.00046477,-0.00263601,-0.00315077,-0.08418130,
 -0.03415017,0.06404694\\0.00000699,-0.00001608,-0.00001499,-0.00000753
 ,-0.00002858,0.00000338,0.00001690,0.00001893,0.00001703,0.00002949,0.
 00001111,0.00000258,-0.00002333,-0.00000346,0.00000140,-0.00000785,0.0
 0001152,0.00000234,-0.00000701,-0.00002764,-0.00000175,-0.00000158,0.0
 0003546,0.00000296,-0.00000351,-0.00002448,0.00001156,0.00000417,0.000
 02945,-0.00002040,-0.00001733,0.00002721,0.00001612,0.00001427,-0.0000
 2183,-0.00000807,-0.00001404,0.00003173,-0.00000803,0.00001836,-0.0000
 2120,0.00000544,0.00002252,0.00000696,-0.00000167,0.00000208,0.0000133
 3,-0.00000422,0.00000028,-0.00001520,0.00001735,0.00001941,-0.00002254
 ,0.00000048,-0.00002291,0.00000696,-0.00001898,-0.00003127,-0.00000344
 ,-0.00000315,0.00003763,0.00000310,0.00001087,-0.00003479,-0.00001529,
 -0.00000995,-0.00000036,0.00000504,0.00000571,-0.00000147,0.00000633,-
 0.00000574,0.00000493,0.00000045,-0.00000267,-0.00000050,-0.00000132,0
 .00000493,-0.00000247,-0.00000275,-0.00000002,0.00000165,-0.00000131,0
 .00000094,-0.00000190,-0.00000367,0.00000609,0.00000352,-0.00000330,-0
 .00000557,-0.00000088,-0.00000202,-0.00000068,0.00000342,-0.00000136,0
 .00000033,0.00000119,-0.00000165,-0.00000470,-0.00000170,0.00000382,-0
 .00000638,-0.00000165,0.00000708,0.00000473,-0.00000472,-0.00000138,0.
 00000274\\\@
 The archive entry for this job was punched.


 KNIGHT- SIRE, I'VE JUST RETURNED FROM THE FRONT
 KING-   HOW GOES THE BATTLE                    
 KNIGHT- THE SITUATION IS QUITE FLUID           
 KING-   WHAT DOES *THAT* MEAN                  
 KNIGHT- WE'RE UP THE CREEK                     
                THE WIZARD OF ID                
 Job cpu time:       0 days  0 hours 58 minutes 26.7 seconds.
 Elapsed time:       0 days  0 hours  7 minutes 18.4 seconds.
 File lengths (MBytes):  RWF=    307 Int=      0 D2E=      0 Chk=     11 Scr=      1
 Normal termination of Gaussian 16 at Tue Oct  8 22:40:09 2024.
