 Entering Gaussian System, Link 0=g16
 Initial command:
 /opt/g16/l1.exe "/tmp/Gau-1202443.inp" -scrdir="/tmp/"
 Entering Link 1 = /opt/g16/l1.exe PID=   1202445.
  
 Copyright (c) 1988-2019, Gaussian, Inc.  All Rights Reserved.
  
 This is part of the Gaussian(R) 16 program.  It is based on
 the Gaussian(R) 09 system (copyright 2009, Gaussian, Inc.),
 the Gaussian(R) 03 system (copyright 2003, Gaussian, Inc.),
 the Gaussian(R) 98 system (copyright 1998, Gaussian, Inc.),
 the Gaussian(R) 94 system (copyright 1995, Gaussian, Inc.),
 the Gaussian 92(TM) system (copyright 1992, Gaussian, Inc.),
 the Gaussian 90(TM) system (copyright 1990, Gaussian, Inc.),
 the Gaussian 88(TM) system (copyright 1988, Gaussian, Inc.),
 the Gaussian 86(TM) system (copyright 1986, Carnegie Mellon
 University), and the Gaussian 82(TM) system (copyright 1983,
 Carnegie Mellon University). Gaussian is a federally registered
 trademark of Gaussian, Inc.
  
 This software contains proprietary and confidential information,
 including trade secrets, belonging to Gaussian, Inc.
  
 This software is provided under written license and may be
 used, copied, transmitted, or stored only in accord with that
 written license.
  
 The following legend is applicable only to US Government
 contracts under FAR:
  
                    RESTRICTED RIGHTS LEGEND
  
 Use, reproduction and disclosure by the US Government is
 subject to restrictions as set forth in subparagraphs (a)
 and (c) of the Commercial Computer Software - Restricted
 Rights clause in FAR 52.227-19.
  
 Gaussian, Inc.
 340 Quinnipiac St., Bldg. 40, Wallingford CT 06492
  
  
 ---------------------------------------------------------------
 Warning -- This program may not be used in any manner that
 competes with the business of Gaussian, Inc. or will provide
 assistance to any competitor of Gaussian, Inc.  The licensee
 of this program is prohibited from giving any competitor of
 Gaussian, Inc. access to this program.  By using this program,
 the user acknowledges that Gaussian, Inc. is engaged in the
 business of creating and licensing software in the field of
 computational chemistry and represents and warrants to the
 licensee that it is not a competitor of Gaussian, Inc. and that
 it will not use this program in any manner prohibited above.
 ---------------------------------------------------------------
  

 Cite this work as:
 Gaussian 16, Revision C.01,
 M. J. Frisch, G. W. Trucks, H. B. Schlegel, G. E. Scuseria, 
 M. A. Robb, J. R. Cheeseman, G. Scalmani, V. Barone, 
 G. A. Petersson, H. Nakatsuji, X. Li, M. Caricato, A. V. Marenich, 
 J. Bloino, B. G. Janesko, R. Gomperts, B. Mennucci, H. P. Hratchian, 
 J. V. Ortiz, A. F. Izmaylov, J. L. Sonnenberg, D. Williams-Young, 
 F. Ding, F. Lipparini, F. Egidi, J. Goings, B. Peng, A. Petrone, 
 T. Henderson, D. Ranasinghe, V. G. Zakrzewski, J. Gao, N. Rega, 
 G. Zheng, W. Liang, M. Hada, M. Ehara, K. Toyota, R. Fukuda, 
 J. Hasegawa, M. Ishida, T. Nakajima, Y. Honda, O. Kitao, H. Nakai, 
 T. Vreven, K. Throssell, J. A. Montgomery, Jr., J. E. Peralta, 
 F. Ogliaro, M. J. Bearpark, J. J. Heyd, E. N. Brothers, K. N. Kudin, 
 V. N. Staroverov, T. A. Keith, R. Kobayashi, J. Normand, 
 K. Raghavachari, A. P. Rendell, J. C. Burant, S. S. Iyengar, 
 J. Tomasi, M. Cossi, J. M. Millam, M. Klene, C. Adamo, R. Cammi, 
 J. W. Ochterski, R. L. Martin, K. Morokuma, O. Farkas, 
 J. B. Foresman, and D. J. Fox, Gaussian, Inc., Wallingford CT, 2019.
 
 ******************************************
 Gaussian 16:  ES64L-G16RevC.01  3-Jul-2019
                 8-Oct-2024 
 ******************************************
 %nprocshared=8
 Will use up to    8 processors via shared memory.
 %mem=8800MB
 ----------------------------------------------------------------------
 #N opt freq B3LYP/def2SVPP symm=veryloose em=gd3bj scale=0.961 press=0
 .987
 ----------------------------------------------------------------------
 1/18=20,19=15,26=3,38=1,113=-987000,114=961000/1,3;
 2/9=110,12=2,17=2,18=2,40=1/2;
 3/5=43,7=202,11=2,25=1,30=1,71=1,74=-5,124=41/1,2,3;
 4//1;
 5/5=2,38=5/2;
 6/7=2,8=2,9=2,10=2,28=1/1;
 7//1,2,3,16;
 1/18=20,19=15,26=3/3(2);
 2/9=110/2;
 99//99;
 2/9=110/2;
 3/5=43,7=202,11=2,25=1,30=1,71=1,74=-5,124=41/1,2,3;
 4/5=5,16=3,69=1/1;
 5/5=2,38=5/2;
 7//1,2,3,16;
 1/18=20,19=15,26=3/3(-5);
 2/9=110/2;
 6/7=2,8=2,9=2,10=2,19=2,28=1/1;
 99/9=1/99;
 ------------------------------------
 c1ccc2cc3cc4c(ccc5ccccc54)cc3cc2c1_2
 ------------------------------------
 Symbolic Z-matrix:
 Charge =  0 Multiplicity = 1
 C                    -5.9727   -0.1491    0.0451 
 C                    -5.731     1.1943   -0.2246 
 C                    -4.419     1.6604   -0.3213 
 C                    -3.3316    0.7877   -0.1493 
 C                    -2.0049    1.2401   -0.2433 
 C                    -0.9167    0.3665   -0.0711 
 C                     0.4145    0.8166   -0.1646 
 C                     1.5339   -0.0389    0.0039 
 C                     1.2544   -1.3998    0.2772 
 C                     2.3036   -2.3055    0.4559 
 C                     3.629    -1.8901    0.3693 
 C                     3.9446   -0.5562    0.1014 
 C                     5.2933   -0.1689    0.0204 
 C                     5.6475    1.1508   -0.2449 
 C                     4.6548    2.0998   -0.4324 
 C                     3.3094    1.7264   -0.3542 
 C                     2.9069    0.3929   -0.0861 
 C                    -0.0729   -1.8534    0.3714 
 C                    -1.1624   -0.9882    0.2009 
 C                    -2.4885   -1.4452    0.2958 
 C                    -3.5768   -0.5743    0.1241 
 C                    -4.9028   -1.0284    0.2185 
 H                    -6.9936   -0.5143    0.1208 
 H                    -6.5626    1.8808   -0.36 
 H                    -4.2503    2.714    -0.5328 
 H                    -1.8162    2.2911   -0.4543 
 H                     0.5709    1.8709   -0.3762 
 H                     2.1005   -3.3536    0.6663 
 H                     4.4164   -2.6267    0.5149 
 H                     6.0856   -0.9007    0.1649 
 H                     6.6948    1.4339   -0.3042 
 H                     4.9198    3.1332   -0.6401 
 H                     2.5735    2.5099   -0.5093 
 H                    -0.263    -2.9048    0.5825 
 H                    -2.6765   -2.4963    0.5068 
 H                    -5.1119   -2.075     0.4286 
 

 GradGradGradGradGradGradGradGradGradGradGradGradGradGradGradGradGradGrad
 Berny optimization.
 Initialization pass.
                           ----------------------------
                           !    Initial Parameters    !
                           ! (Angstroms and Degrees)  !
 --------------------------                            --------------------------
 ! Name  Definition              Value          Derivative Info.                !
 --------------------------------------------------------------------------------
 ! R1    R(1,2)                  1.3914         estimate D2E/DX2                !
 ! R2    R(1,22)                 1.3957         estimate D2E/DX2                !
 ! R3    R(1,23)                 1.0869         estimate D2E/DX2                !
 ! R4    R(2,3)                  1.3957         estimate D2E/DX2                !
 ! R5    R(2,24)                 1.0868         estimate D2E/DX2                !
 ! R6    R(3,4)                  1.4049         estimate D2E/DX2                !
 ! R7    R(3,25)                 1.0878         estimate D2E/DX2                !
 ! R8    R(4,5)                  1.4049         estimate D2E/DX2                !
 ! R9    R(4,21)                 1.4106         estimate D2E/DX2                !
 ! R10   R(5,6)                  1.4061         estimate D2E/DX2                !
 ! R11   R(5,26)                 1.0885         estimate D2E/DX2                !
 ! R12   R(6,7)                  1.4083         estimate D2E/DX2                !
 ! R13   R(6,19)                 1.4034         estimate D2E/DX2                !
 ! R14   R(7,8)                  1.4189         estimate D2E/DX2                !
 ! R15   R(7,27)                 1.0866         estimate D2E/DX2                !
 ! R16   R(8,9)                  1.4159         estimate D2E/DX2                !
 ! R17   R(8,17)                 1.4421         estimate D2E/DX2                !
 ! R18   R(9,10)                 1.3975         estimate D2E/DX2                !
 ! R19   R(9,18)                 1.4058         estimate D2E/DX2                !
 ! R20   R(10,11)                1.3917         estimate D2E/DX2                !
 ! R21   R(10,28)                1.0881         estimate D2E/DX2                !
 ! R22   R(11,12)                1.3967         estimate D2E/DX2                !
 ! R23   R(11,29)                1.088          estimate D2E/DX2                !
 ! R24   R(12,13)                1.4055         estimate D2E/DX2                !
 ! R25   R(12,17)                1.4187         estimate D2E/DX2                !
 ! R26   R(13,14)                1.3919         estimate D2E/DX2                !
 ! R27   R(13,30)                1.0882         estimate D2E/DX2                !
 ! R28   R(14,15)                1.3861         estimate D2E/DX2                !
 ! R29   R(14,31)                1.0865         estimate D2E/DX2                !
 ! R30   R(15,16)                1.3984         estimate D2E/DX2                !
 ! R31   R(15,32)                1.0869         estimate D2E/DX2                !
 ! R32   R(16,17)                1.4185         estimate D2E/DX2                !
 ! R33   R(16,33)                1.086          estimate D2E/DX2                !
 ! R34   R(18,19)                1.4017         estimate D2E/DX2                !
 ! R35   R(18,34)                1.0891         estimate D2E/DX2                !
 ! R36   R(19,20)                1.4058         estimate D2E/DX2                !
 ! R37   R(20,21)                1.4044         estimate D2E/DX2                !
 ! R38   R(20,35)                1.0884         estimate D2E/DX2                !
 ! R39   R(21,22)                1.4048         estimate D2E/DX2                !
 ! R40   R(22,36)                1.0878         estimate D2E/DX2                !
 ! A1    A(2,1,22)             119.9481         estimate D2E/DX2                !
 ! A2    A(2,1,23)             120.0721         estimate D2E/DX2                !
 ! A3    A(22,1,23)            119.9798         estimate D2E/DX2                !
 ! A4    A(1,2,3)              119.9454         estimate D2E/DX2                !
 ! A5    A(1,2,24)             120.0738         estimate D2E/DX2                !
 ! A6    A(3,2,24)             119.9808         estimate D2E/DX2                !
 ! A7    A(2,3,4)              120.7757         estimate D2E/DX2                !
 ! A8    A(2,3,25)             118.8634         estimate D2E/DX2                !
 ! A9    A(4,3,25)             120.3609         estimate D2E/DX2                !
 ! A10   A(3,4,5)              121.5155         estimate D2E/DX2                !
 ! A11   A(3,4,21)             119.2727         estimate D2E/DX2                !
 ! A12   A(5,4,21)             119.2118         estimate D2E/DX2                !
 ! A13   A(4,5,6)              121.5071         estimate D2E/DX2                !
 ! A14   A(4,5,26)             119.1852         estimate D2E/DX2                !
 ! A15   A(6,5,26)             119.3076         estimate D2E/DX2                !
 ! A16   A(5,6,7)              121.6577         estimate D2E/DX2                !
 ! A17   A(5,6,19)             119.2083         estimate D2E/DX2                !
 ! A18   A(7,6,19)             119.134          estimate D2E/DX2                !
 ! A19   A(6,7,8)              123.033          estimate D2E/DX2                !
 ! A20   A(6,7,27)             117.3264         estimate D2E/DX2                !
 ! A21   A(8,7,27)             119.6406         estimate D2E/DX2                !
 ! A22   A(7,8,9)              116.5311         estimate D2E/DX2                !
 ! A23   A(7,8,17)             124.2749         estimate D2E/DX2                !
 ! A24   A(9,8,17)             119.194          estimate D2E/DX2                !
 ! A25   A(8,9,10)             119.9586         estimate D2E/DX2                !
 ! A26   A(8,9,18)             120.6252         estimate D2E/DX2                !
 ! A27   A(10,9,18)            119.4162         estimate D2E/DX2                !
 ! A28   A(9,10,11)            120.9045         estimate D2E/DX2                !
 ! A29   A(9,10,28)            120.586          estimate D2E/DX2                !
 ! A30   A(11,10,28)           118.5094         estimate D2E/DX2                !
 ! A31   A(10,11,12)           120.8119         estimate D2E/DX2                !
 ! A32   A(10,11,29)           118.6092         estimate D2E/DX2                !
 ! A33   A(12,11,29)           120.579          estimate D2E/DX2                !
 ! A34   A(11,12,13)           119.4098         estimate D2E/DX2                !
 ! A35   A(11,12,17)           119.9333         estimate D2E/DX2                !
 ! A36   A(13,12,17)           120.657          estimate D2E/DX2                !
 ! A37   A(12,13,14)           121.0921         estimate D2E/DX2                !
 ! A38   A(12,13,30)           120.3769         estimate D2E/DX2                !
 ! A39   A(14,13,30)           118.531          estimate D2E/DX2                !
 ! A40   A(13,14,15)           119.5166         estimate D2E/DX2                !
 ! A41   A(13,14,31)           120.1806         estimate D2E/DX2                !
 ! A42   A(15,14,31)           120.3028         estimate D2E/DX2                !
 ! A43   A(14,15,16)           119.9108         estimate D2E/DX2                !
 ! A44   A(14,15,32)           120.1465         estimate D2E/DX2                !
 ! A45   A(16,15,32)           119.9427         estimate D2E/DX2                !
 ! A46   A(15,16,17)           122.3149         estimate D2E/DX2                !
 ! A47   A(15,16,33)           116.8261         estimate D2E/DX2                !
 ! A48   A(17,16,33)           120.859          estimate D2E/DX2                !
 ! A49   A(8,17,12)            119.1977         estimate D2E/DX2                !
 ! A50   A(8,17,16)            124.2936         estimate D2E/DX2                !
 ! A51   A(12,17,16)           116.5087         estimate D2E/DX2                !
 ! A52   A(9,18,19)            121.7731         estimate D2E/DX2                !
 ! A53   A(9,18,34)            119.2928         estimate D2E/DX2                !
 ! A54   A(19,18,34)           118.9341         estimate D2E/DX2                !
 ! A55   A(6,19,18)            118.9035         estimate D2E/DX2                !
 ! A56   A(6,19,20)            119.4731         estimate D2E/DX2                !
 ! A57   A(18,19,20)           121.6235         estimate D2E/DX2                !
 ! A58   A(19,20,21)           121.4079         estimate D2E/DX2                !
 ! A59   A(19,20,35)           119.3365         estimate D2E/DX2                !
 ! A60   A(21,20,35)           119.2556         estimate D2E/DX2                !
 ! A61   A(4,21,20)            119.1918         estimate D2E/DX2                !
 ! A62   A(4,21,22)            119.2884         estimate D2E/DX2                !
 ! A63   A(20,21,22)           121.5198         estimate D2E/DX2                !
 ! A64   A(1,22,21)            120.7697         estimate D2E/DX2                !
 ! A65   A(1,22,36)            118.8691         estimate D2E/DX2                !
 ! A66   A(21,22,36)           120.3612         estimate D2E/DX2                !
 ! D1    D(22,1,2,3)            -0.0001         estimate D2E/DX2                !
 ! D2    D(22,1,2,24)          179.9993         estimate D2E/DX2                !
 ! D3    D(23,1,2,3)          -179.9971         estimate D2E/DX2                !
 ! D4    D(23,1,2,24)            0.0023         estimate D2E/DX2                !
 ! D5    D(2,1,22,21)           -0.0031         estimate D2E/DX2                !
 ! D6    D(2,1,22,36)         -179.996          estimate D2E/DX2                !
 ! D7    D(23,1,22,21)         179.9939         estimate D2E/DX2                !
 ! D8    D(23,1,22,36)           0.001          estimate D2E/DX2                !
 ! D9    D(1,2,3,4)              0.0016         estimate D2E/DX2                !
 ! D10   D(1,2,3,25)           179.998          estimate D2E/DX2                !
 ! D11   D(24,2,3,4)          -179.9978         estimate D2E/DX2                !
 ! D12   D(24,2,3,25)           -0.0014         estimate D2E/DX2                !
 ! D13   D(2,3,4,5)            179.9997         estimate D2E/DX2                !
 ! D14   D(2,3,4,21)             0.0            estimate D2E/DX2                !
 ! D15   D(25,3,4,5)             0.0034         estimate D2E/DX2                !
 ! D16   D(25,3,4,21)         -179.9964         estimate D2E/DX2                !
 ! D17   D(3,4,5,6)            179.999          estimate D2E/DX2                !
 ! D18   D(3,4,5,26)            -0.0015         estimate D2E/DX2                !
 ! D19   D(21,4,5,6)            -0.0013         estimate D2E/DX2                !
 ! D20   D(21,4,5,26)          179.9982         estimate D2E/DX2                !
 ! D21   D(3,4,21,20)         -179.9971         estimate D2E/DX2                !
 ! D22   D(3,4,21,22)           -0.0031         estimate D2E/DX2                !
 ! D23   D(5,4,21,20)            0.0031         estimate D2E/DX2                !
 ! D24   D(5,4,21,22)          179.9972         estimate D2E/DX2                !
 ! D25   D(4,5,6,7)           -179.9976         estimate D2E/DX2                !
 ! D26   D(4,5,6,19)            -0.0015         estimate D2E/DX2                !
 ! D27   D(26,5,6,7)             0.0029         estimate D2E/DX2                !
 ! D28   D(26,5,6,19)          179.999          estimate D2E/DX2                !
 ! D29   D(5,6,7,8)            179.9998         estimate D2E/DX2                !
 ! D30   D(5,6,7,27)            -0.004          estimate D2E/DX2                !
 ! D31   D(19,6,7,8)             0.0037         estimate D2E/DX2                !
 ! D32   D(19,6,7,27)          179.9999         estimate D2E/DX2                !
 ! D33   D(5,6,19,18)          179.9994         estimate D2E/DX2                !
 ! D34   D(5,6,19,20)            0.0024         estimate D2E/DX2                !
 ! D35   D(7,6,19,18)           -0.0044         estimate D2E/DX2                !
 ! D36   D(7,6,19,20)          179.9986         estimate D2E/DX2                !
 ! D37   D(6,7,8,9)             -0.0024         estimate D2E/DX2                !
 ! D38   D(6,7,8,17)           179.9972         estimate D2E/DX2                !
 ! D39   D(27,7,8,9)          -179.9985         estimate D2E/DX2                !
 ! D40   D(27,7,8,17)            0.0011         estimate D2E/DX2                !
 ! D41   D(7,8,9,10)           179.9984         estimate D2E/DX2                !
 ! D42   D(7,8,9,18)             0.0019         estimate D2E/DX2                !
 ! D43   D(17,8,9,10)           -0.0012         estimate D2E/DX2                !
 ! D44   D(17,8,9,18)         -179.9977         estimate D2E/DX2                !
 ! D45   D(7,8,17,12)          179.9981         estimate D2E/DX2                !
 ! D46   D(7,8,17,16)            0.0017         estimate D2E/DX2                !
 ! D47   D(9,8,17,12)           -0.0023         estimate D2E/DX2                !
 ! D48   D(9,8,17,16)         -179.9987         estimate D2E/DX2                !
 ! D49   D(8,9,10,11)            0.0009         estimate D2E/DX2                !
 ! D50   D(8,9,10,28)         -179.9969         estimate D2E/DX2                !
 ! D51   D(18,9,10,11)         179.9974         estimate D2E/DX2                !
 ! D52   D(18,9,10,28)          -0.0004         estimate D2E/DX2                !
 ! D53   D(8,9,18,19)           -0.0029         estimate D2E/DX2                !
 ! D54   D(8,9,18,34)         -179.9988         estimate D2E/DX2                !
 ! D55   D(10,9,18,19)        -179.9994         estimate D2E/DX2                !
 ! D56   D(10,9,18,34)           0.0047         estimate D2E/DX2                !
 ! D57   D(9,10,11,12)           0.003          estimate D2E/DX2                !
 ! D58   D(9,10,11,29)         179.9944         estimate D2E/DX2                !
 ! D59   D(28,10,11,12)       -179.9991         estimate D2E/DX2                !
 ! D60   D(28,10,11,29)         -0.0077         estimate D2E/DX2                !
 ! D61   D(10,11,12,13)        179.9984         estimate D2E/DX2                !
 ! D62   D(10,11,12,17)         -0.0066         estimate D2E/DX2                !
 ! D63   D(29,11,12,13)          0.0073         estimate D2E/DX2                !
 ! D64   D(29,11,12,17)       -179.9978         estimate D2E/DX2                !
 ! D65   D(11,12,13,14)        179.9932         estimate D2E/DX2                !
 ! D66   D(11,12,13,30)          0.0003         estimate D2E/DX2                !
 ! D67   D(17,12,13,14)         -0.0017         estimate D2E/DX2                !
 ! D68   D(17,12,13,30)       -179.9946         estimate D2E/DX2                !
 ! D69   D(11,12,17,8)           0.0062         estimate D2E/DX2                !
 ! D70   D(11,12,17,16)       -179.9971         estimate D2E/DX2                !
 ! D71   D(13,12,17,8)        -179.9989         estimate D2E/DX2                !
 ! D72   D(13,12,17,16)         -0.0022         estimate D2E/DX2                !
 ! D73   D(12,13,14,15)          0.0061         estimate D2E/DX2                !
 ! D74   D(12,13,14,31)        179.9963         estimate D2E/DX2                !
 ! D75   D(30,13,14,15)        179.9991         estimate D2E/DX2                !
 ! D76   D(30,13,14,31)         -0.0108         estimate D2E/DX2                !
 ! D77   D(13,14,15,16)         -0.0063         estimate D2E/DX2                !
 ! D78   D(13,14,15,32)        179.9993         estimate D2E/DX2                !
 ! D79   D(31,14,15,16)       -179.9965         estimate D2E/DX2                !
 ! D80   D(31,14,15,32)          0.0091         estimate D2E/DX2                !
 ! D81   D(14,15,16,17)          0.0024         estimate D2E/DX2                !
 ! D82   D(14,15,16,33)       -179.995          estimate D2E/DX2                !
 ! D83   D(32,15,16,17)        179.9968         estimate D2E/DX2                !
 ! D84   D(32,15,16,33)         -0.0006         estimate D2E/DX2                !
 ! D85   D(15,16,17,8)         179.9984         estimate D2E/DX2                !
 ! D86   D(15,16,17,12)          0.0019         estimate D2E/DX2                !
 ! D87   D(33,16,17,8)          -0.0043         estimate D2E/DX2                !
 ! D88   D(33,16,17,12)        179.9992         estimate D2E/DX2                !
 ! D89   D(9,18,19,6)            0.0042         estimate D2E/DX2                !
 ! D90   D(9,18,19,20)        -179.999          estimate D2E/DX2                !
 ! D91   D(34,18,19,6)        -179.9999         estimate D2E/DX2                !
 ! D92   D(34,18,19,20)         -0.003          estimate D2E/DX2                !
 ! D93   D(6,19,20,21)          -0.0005         estimate D2E/DX2                !
 ! D94   D(6,19,20,35)         179.9979         estimate D2E/DX2                !
 ! D95   D(18,19,20,21)       -179.9974         estimate D2E/DX2                !
 ! D96   D(18,19,20,35)          0.001          estimate D2E/DX2                !
 ! D97   D(19,20,21,4)          -0.0023         estimate D2E/DX2                !
 ! D98   D(19,20,21,22)       -179.9962         estimate D2E/DX2                !
 ! D99   D(35,20,21,4)         179.9993         estimate D2E/DX2                !
 ! D100  D(35,20,21,22)          0.0054         estimate D2E/DX2                !
 ! D101  D(4,21,22,1)            0.0046         estimate D2E/DX2                !
 ! D102  D(4,21,22,36)         179.9975         estimate D2E/DX2                !
 ! D103  D(20,21,22,1)         179.9986         estimate D2E/DX2                !
 ! D104  D(20,21,22,36)         -0.0086         estimate D2E/DX2                !
 --------------------------------------------------------------------------------
 Trust Radius=3.00D-01 FncErr=1.00D-07 GrdErr=1.00D-06 EigMax=2.50D+02 EigMin=1.00D-04
 Number of steps in this run=    216 maximum allowed number of steps=    216.
 GradGradGradGradGradGradGradGradGradGradGradGradGradGradGradGradGradGrad

                          Input orientation:                          
 ---------------------------------------------------------------------
 Center     Atomic      Atomic             Coordinates (Angstroms)
 Number     Number       Type             X           Y           Z
 ---------------------------------------------------------------------
      1          6           0       -5.972700   -0.149100    0.045100
      2          6           0       -5.731000    1.194300   -0.224600
      3          6           0       -4.419000    1.660400   -0.321300
      4          6           0       -3.331600    0.787700   -0.149300
      5          6           0       -2.004900    1.240100   -0.243300
      6          6           0       -0.916700    0.366500   -0.071100
      7          6           0        0.414500    0.816600   -0.164600
      8          6           0        1.533900   -0.038900    0.003900
      9          6           0        1.254400   -1.399800    0.277200
     10          6           0        2.303600   -2.305500    0.455900
     11          6           0        3.629000   -1.890100    0.369300
     12          6           0        3.944600   -0.556200    0.101400
     13          6           0        5.293300   -0.168900    0.020400
     14          6           0        5.647500    1.150800   -0.244900
     15          6           0        4.654800    2.099800   -0.432400
     16          6           0        3.309400    1.726400   -0.354200
     17          6           0        2.906900    0.392900   -0.086100
     18          6           0       -0.072900   -1.853400    0.371400
     19          6           0       -1.162400   -0.988200    0.200900
     20          6           0       -2.488500   -1.445200    0.295800
     21          6           0       -3.576800   -0.574300    0.124100
     22          6           0       -4.902800   -1.028400    0.218500
     23          1           0       -6.993600   -0.514300    0.120800
     24          1           0       -6.562600    1.880800   -0.360000
     25          1           0       -4.250300    2.714000   -0.532800
     26          1           0       -1.816200    2.291100   -0.454300
     27          1           0        0.570900    1.870900   -0.376200
     28          1           0        2.100500   -3.353600    0.666300
     29          1           0        4.416400   -2.626700    0.514900
     30          1           0        6.085600   -0.900700    0.164900
     31          1           0        6.694800    1.433900   -0.304200
     32          1           0        4.919800    3.133200   -0.640100
     33          1           0        2.573500    2.509900   -0.509300
     34          1           0       -0.263000   -2.904800    0.582500
     35          1           0       -2.676500   -2.496300    0.506800
     36          1           0       -5.111900   -2.075000    0.428600
 ---------------------------------------------------------------------
                    Distance matrix (angstroms):
                    1          2          3          4          5
     1  C    0.000000
     2  C    1.391359   0.000000
     3  C    2.412990   1.395688   0.000000
     4  C    2.809056   2.434772   1.404859   0.000000
     5  C    4.213845   3.726428   2.451656   1.404861   0.000000
     6  C    5.083550   4.887361   3.742043   2.452604   1.406062
     7  C    6.463194   6.157388   4.909101   3.746243   2.457446
     8  C    7.507522   7.372365   6.199225   4.937593   3.770949
     9  C    7.338194   7.468398   6.473831   5.098868   4.226468
    10  C    8.562474   8.790135   7.843835   6.456751   5.623463
    11  C    9.763648   9.872985   8.823451   7.475929   6.474122
    12  C    9.925812   9.838077   8.662667   7.403513   6.224312
    13  C   11.266044  11.110964   9.888977   8.679446   7.437644
    14  C   11.696277  11.378601  10.079680   8.986947   7.652921
    15  C   10.873330  10.427270   9.085112   8.098416   6.717622
    16  C    9.478097   9.056973   7.728752   6.710143   5.337656
    17  C    8.897094   8.676102   7.438460   6.251299   4.986806
    18  C    6.149695   6.454284   5.631626   4.226779   3.698678
    19  C    4.885422   5.080990   4.230038   2.825224   2.423312
    20  C    3.725906   4.213263   3.708422   2.427916   2.781247
    21  C    2.434620   2.808935   2.429314   1.410643   2.428559
    22  C    1.395680   2.413016   2.784797   2.429437   3.709067
    23  H    1.086894   2.152388   3.399020   3.895947   5.300718
    24  H    2.152343   1.086818   2.155248   3.417400   4.603992
    25  H    3.390866   2.144049   1.087780   2.168344   2.701483
    26  H    4.845665   4.072025   2.681425   2.156310   1.088453
    27  H    6.861239   6.339930   4.994640   4.056392   2.655243
    28  H    8.708115   9.099972   8.283685   6.879192   6.227661
    29  H   10.690772  10.868147   9.856102   8.492985   7.533930
    30  H   12.082295  12.007197  10.823227   9.572516   8.378893
    31  H   12.770805  12.428365  11.116121  10.048396   8.702071
    32  H   11.396910  10.833813   9.459596   8.592314   7.189767
    33  H    8.967451   8.412882   7.046421   6.161638   4.758665
    34  H    6.362653   6.881356   6.239410   4.856582   4.571253
    35  H    4.072769   4.846178   4.582599   3.412371   3.869675
    36  H    2.144094   3.390911   3.872425   3.420305   4.592906
                    6          7          8          9         10
     6  C    0.000000
     7  C    1.408341   0.000000
     8  C    2.485038   1.418918   0.000000
     9  C    2.820426   2.411026   1.415931   0.000000
    10  C    4.217540   3.701517   2.436025   1.397515   0.000000
    11  C    5.094073   4.236069   2.819557   2.426438   1.391669
    12  C    4.951098   3.796965   2.467505   2.824844   2.424583
    13  C    6.233709   4.980776   3.761683   4.230103   3.700409
    14  C    6.613173   5.244276   4.289405   5.106611   4.859917
    15  C    5.846065   4.438295   3.808466   4.930867   5.071872
    16  C    4.448527   3.040416   2.529213   3.794050   4.233688
    17  C    3.823721   2.529376   1.442110   2.465059   2.817640
    18  C    2.415732   2.766542   2.451382   1.405828   2.420596
    19  C    1.403412   2.424357   2.865312   2.452786   3.716646
    20  C    2.426402   3.708789   4.271134   3.743222   4.871342
    21  C    2.828310   4.236558   5.140074   4.903609   6.138913
    22  C    4.233038   5.641318   6.515848   6.168670   7.322537
    23  H    6.143399   7.532111   8.541541   8.296871   9.474102
    24  H    5.852585   7.060498   8.328925   8.501403   9.838714
    25  H    4.103268   5.049362   6.428334   6.919622   8.314236
    26  H    2.158710   2.689628   4.106339   4.856585   6.239387
    27  H    2.137583   1.086639   2.172368   3.404641   4.597495
    28  H    4.846277   4.574228   3.427396   2.164398   1.088132
    29  H    6.143663   5.322898   3.907254   3.400004   2.137890
    30  H    7.119951   5.934565   4.635363   4.858210   4.044956
    31  H    7.689513   6.312109   5.375775   6.161642   5.817517
    32  H    6.484067   5.088267   4.684151   5.901244   6.133936
    33  H    4.119184   2.765387   2.800094   4.200519   4.918591
    34  H    3.399400   3.855643   3.431765   2.158874   2.638678
    35  H    3.409764   4.580433   4.900938   4.087420   4.984014
    36  H    4.879583   6.265328   6.963672   6.403795   7.419132
                   11         12         13         14         15
    11  C    0.000000
    12  C    1.396661   0.000000
    13  C    2.419536   1.405544   0.000000
    14  C    3.701170   2.435907   1.391923   0.000000
    15  C    4.196938   2.800654   2.399940   1.386077   0.000000
    16  C    3.701982   2.412740   2.769178   2.410389   1.398443
    17  C    2.437397   1.418721   2.453949   2.847897   2.467506
    18  C    3.702083   4.230359   5.635321   6.490610   6.214904
    19  C    4.878452   5.126205   6.509984   7.151839   6.616391
    20  C    6.134097   6.497145   7.890577   8.557223   8.007748
    21  C    7.329052   7.521456   8.879965   9.391477   8.672932
    22  C    8.576531   8.860766  10.234180  10.782972  10.077550
    23  H   10.714206  10.938297  12.292164  12.755536  11.950932
    24  H   10.891294  10.795977  12.037788  12.232444  11.219771
    25  H    9.170327   8.846061   9.984861  10.024616   8.926821
    26  H    6.914547   6.450018   7.538032   7.553208   6.473864
    27  H    4.904372   4.183392   5.159374   5.129098   4.090696
    28  H    2.136903   3.397832   4.555598   5.805266   6.121369
    29  H    1.088015   2.163457   2.655987   4.045048   4.826387
    30  H    2.656233   2.169468   1.088187   2.137410   3.377419
    31  H    4.571839   3.418861   2.153726   1.086508   2.149758
    32  H    5.283805   3.887481   3.388160   2.148404   1.086867
    33  H    4.609340   3.413772   3.854071   3.371429   2.122712
    34  H    4.027746   4.842652   6.218808   7.215711   7.089485
    35  H    6.336065   6.911389   8.316916   9.118956   8.703688
    36  H    8.743057   9.188798  10.586219  11.252736  10.656393
                   16         17         18         19         20
    16  C    0.000000
    17  C    1.418487   0.000000
    18  C    4.978094   3.759572   0.000000
    19  C    5.260626   4.306856   1.401660   0.000000
    20  C    6.640572   5.712688   2.451013   1.405844   0.000000
    21  C    7.276108   6.558813   3.738258   2.450824   1.404402
    22  C    8.680849   7.943821   4.902238   3.740657   2.451233
    23  H   10.554533   9.944130   7.053515   5.850973   4.603599
    24  H    9.873209   9.589593   7.522992   6.140678   5.300060
    25  H    7.626029   7.537411   6.255349   4.876446   4.592326
    26  H    5.157585   5.103568   4.571406   3.407426   3.869700
    27  H    2.742398   2.779485   3.852765   3.392908   4.561582
    28  H    5.320645   3.905464   2.657298   4.056875   4.983792
    29  H    4.574960   3.428961   4.557675   5.822911   7.008680
    30  H    3.857254   3.441008   6.235175   7.248618   8.592369
    31  H    3.398380   3.934391   7.554107   8.237553   9.642729
    32  H    2.157363   3.444986   7.128560   7.395024   8.759028
    33  H    1.086037   2.184478   5.178557   5.167014   6.474168
    34  H    5.923467   4.622782   1.089102   2.151254   2.676841
    35  H    7.375874   6.314536   2.685216   2.158805   1.088428
    36  H    9.272632   8.405748   5.044195   4.102625   2.701206
                   21         22         23         24         25
    21  C    0.000000
    22  C    1.404775   0.000000
    23  H    3.417328   2.155293   0.000000
    24  H    3.895750   3.398977   2.480612   0.000000
    25  H    3.420239   3.872437   4.286585   2.463902   0.000000
    26  H    3.412444   4.582449   5.916627   4.765034   2.471811
    27  H    4.840735   6.222620   7.947191   7.133525   4.896867
    28  H    6.344306   7.392786   9.542633  10.173570   8.864890
    29  H    8.261738   9.459910  11.610583  11.900481  10.233887
    30  H    9.667997  10.989273  13.084981  12.961066  10.971949
    31  H   10.474831  11.867622  13.832874  13.265048  11.022075
    32  H    9.301708  10.702317  12.482481  11.553894   9.180304
    33  H    6.909390   8.303272  10.053468   9.158951   6.826892
    34  H    4.077086   5.018079   7.157418   7.967135   6.979496
    35  H    2.156637   2.682212   4.765991   5.917104   5.541195
    36  H    2.168260   1.087767   2.464005   4.286581   4.959956
                   26         27         28         29         30
    26  H    0.000000
    27  H    2.425060   0.000000
    28  H    6.961244   5.542732   0.000000
    29  H    7.998088   5.984174   2.432015   0.000000
    30  H    8.544556   6.195682   4.706288   2.426480   0.000000
    31  H    8.555375   6.139894   6.705939   4.727632   2.457954
    32  H    6.790976   4.536075   7.192615   5.896091   4.275449
    33  H    4.395494   2.106287   5.998866   5.552470   4.941820
    34  H    5.521301   4.941842   2.407193   4.688144   6.670497
    35  H    4.958127   5.513414   4.855938   7.094103   8.912757
    36  H    5.541117   6.965059   7.328713   9.544649  11.261995
                   31         32         33         34         35
    31  H    0.000000
    32  H    2.480136   0.000000
    33  H    4.264382   2.431200   0.000000
    34  H    8.247517   8.050690   6.209407   0.000000
    35  H   10.194384   9.524202   7.325094   2.448997   0.000000
    36  H   12.338863  11.353522   8.998130   4.921797   2.472809
                   36
    36  H    0.000000
 Stoichiometry    C22H14
 Framework group  CS[SG(C22H14)]
 Deg. of freedom    69
 Full point group                 CS      NOp   2
 Largest Abelian subgroup         CS      NOp   2
 Largest concise Abelian subgroup C1      NOp   1
                         Standard orientation:                         
 ---------------------------------------------------------------------
 Center     Atomic      Atomic             Coordinates (Angstroms)
 Number     Number       Type             X           Y           Z
 ---------------------------------------------------------------------
      1          6           0        2.884360    5.243718    0.000000
      2          6           0        3.950514    4.349741    0.000000
      3          6           0        3.707324    2.975403    0.000000
      4          6           0        2.393513    2.477880    0.000000
      5          6           0        2.130883    1.097785    0.000000
      6          6           0        0.815874    0.600029    0.000000
      7          6           0        0.548957   -0.782787    0.000000
      8          6           0       -0.765638   -1.316800   -0.000000
      9          6           0       -1.828381   -0.381152   -0.000000
     10          6           0       -3.152274   -0.828761   -0.000000
     11          6           0       -3.446941   -2.188877   -0.000000
     12          6           0       -2.426085   -3.142038   -0.000000
     13          6           0       -2.757213   -4.508021   -0.000000
     14          6           0       -1.768147   -5.487408   -0.000000
     15          6           0       -0.434209   -5.110818   -0.000000
     16          6           0       -0.092448   -3.754778   -0.000000
     17          6           0       -1.069579   -2.726517   -0.000000
     18          6           0       -1.566505    1.000069   -0.000000
     19          6           0       -0.258270    1.503234   -0.000000
     20          6           0        0.000000    2.885150    0.000000
     21          6           0        1.312680    3.384365    0.000000
     22          6           0        1.573449    4.764725    0.000000
     23          1           0        3.071377    6.314402    0.000000
     24          1           0        4.972138    4.720494    0.000000
     25          1           0        4.553905    2.292347    0.000000
     26          1           0        2.965178    0.398727    0.000000
     27          1           0        1.402295   -1.455541    0.000000
     28          1           0       -3.976809   -0.118709   -0.000000
     29          1           0       -4.490769   -2.495797   -0.000000
     30          1           0       -3.799225   -4.821645   -0.000000
     31          1           0       -2.040878   -6.539129   -0.000000
     32          1           0        0.346453   -5.867023    0.000000
     33          1           0        0.967100   -3.516378    0.000000
     34          1           0       -2.400457    1.700546   -0.000000
     35          1           0       -0.834729    3.583650   -0.000000
     36          1           0        0.753237    5.479210    0.000000
 ---------------------------------------------------------------------
 Rotational constants (GHZ):           0.9766478           0.1352782           0.1188201
 Standard basis: def2SVPP (5D, 7F)
 There are   270 symmetry adapted cartesian basis functions of A'  symmetry.
 There are    88 symmetry adapted cartesian basis functions of A"  symmetry.
 There are   248 symmetry adapted basis functions of A'  symmetry.
 There are    88 symmetry adapted basis functions of A"  symmetry.
   336 basis functions,   606 primitive gaussians,   358 cartesian basis functions
    73 alpha electrons       73 beta electrons
       nuclear repulsion energy      1516.4476385382 Hartrees.
 NAtoms=   36 NActive=   36 NUniq=   36 SFac= 1.00D+00 NAtFMM=   60 NAOKFM=F Big=F
 Integral buffers will be    131072 words long.
 Raffenetti 2 integral format.
 Two-electron integral symmetry is turned on.
 Nuclear repulsion after empirical dispersion term =     1516.3567713081 Hartrees.
 One-electron integrals computed using PRISM.
   2 Symmetry operations used in ECPInt.
 ECPInt:  NShTT=   12880 NPrTT=   51688 LenC2=   11430 LenP2D=   31097.
 LDataN:  DoStor=T MaxTD1= 4 Len=   56
 NBasis=   336 RedAO= T EigKep=  2.13D-04  NBF=   248    88
 NBsUse=   336 1.00D-06 EigRej= -1.00D+00 NBFU=   248    88
 ExpMin= 1.22D-01 ExpMax= 1.24D+03 ExpMxC= 1.86D+02 IAcc=3 IRadAn=         5 AccDes= 0.00D+00
 Harris functional with IExCor=  402 and IRadAn=       5 diagonalized for initial guess.
 HarFok:  IExCor=  402 AccDes= 0.00D+00 IRadAn=         5 IDoV= 1 UseB2=F ITyADJ=14
 ICtDFT=  3500011 ScaDFX=  1.000000  1.000000  1.000000  1.000000
 FoFCou: FMM=F IPFlag=           0 FMFlag=      100000 FMFlg1=           0
         NFxFlg=           0 DoJE=T BraDBF=F KetDBF=T FulRan=T
         wScrn=  0.000000 ICntrl=       500 IOpCl=  0 I1Cent=   200000004 NGrid=           0
         NMat0=    1 NMatS0=      1 NMatT0=    0 NMatD0=    1 NMtDS0=    0 NMtDT0=    0
 Petite list used in FoFCou.
 Initial guess orbital symmetries:
       Occupied  (A') (A') (A') (A') (A') (A') (A') (A') (A') (A')
                 (A') (A') (A') (A') (A') (A') (A') (A') (A') (A')
                 (A') (A') (A') (A') (A') (A') (A') (A') (A') (A')
                 (A') (A') (A') (A') (A') (A') (A') (A') (A') (A')
                 (A') (A') (A') (A') (A') (A') (A') (A') (A') (A')
                 (A') (A') (A') (A') (A') (A') (A") (A') (A") (A')
                 (A') (A') (A") (A') (A') (A") (A") (A") (A") (A")
                 (A") (A") (A")
       Virtual   (A") (A") (A") (A") (A") (A") (A") (A") (A") (A')
                 (A') (A') (A') (A') (A') (A") (A') (A') (A') (A')
                 (A") (A') (A') (A') (A') (A') (A') (A') (A') (A')
                 (A') (A') (A') (A') (A') (A') (A') (A') (A') (A')
                 (A') (A') (A') (A') (A') (A') (A') (A') (A') (A')
                 (A') (A') (A') (A') (A') (A') (A') (A") (A') (A")
                 (A') (A') (A') (A") (A") (A') (A') (A') (A") (A')
                 (A') (A") (A') (A") (A') (A') (A") (A") (A') (A")
                 (A") (A") (A") (A") (A') (A') (A') (A") (A') (A')
                 (A') (A') (A') (A') (A') (A') (A') (A") (A') (A')
                 (A") (A") (A') (A') (A') (A') (A') (A") (A') (A')
                 (A') (A') (A") (A') (A') (A") (A') (A') (A') (A")
                 (A') (A') (A') (A') (A') (A') (A') (A') (A') (A')
                 (A') (A') (A') (A') (A') (A") (A") (A') (A') (A")
                 (A") (A') (A") (A') (A') (A') (A') (A') (A") (A')
                 (A') (A") (A") (A') (A") (A") (A") (A') (A") (A")
                 (A') (A") (A") (A") (A") (A") (A') (A') (A') (A')
                 (A') (A') (A') (A') (A') (A') (A') (A') (A") (A')
                 (A') (A') (A") (A') (A') (A') (A") (A') (A") (A')
                 (A') (A') (A") (A') (A') (A') (A") (A') (A") (A')
                 (A') (A') (A') (A') (A') (A") (A') (A') (A") (A")
                 (A') (A') (A") (A') (A") (A') (A") (A') (A") (A")
                 (A') (A") (A") (A") (A") (A') (A") (A") (A') (A')
                 (A') (A') (A') (A") (A') (A') (A') (A') (A") (A')
                 (A') (A") (A') (A") (A') (A') (A") (A') (A') (A')
                 (A') (A') (A') (A') (A') (A') (A') (A') (A') (A')
                 (A') (A') (A')
 The electronic state of the initial guess is 1-A'.
 Requested convergence on RMS density matrix=1.00D-08 within 128 cycles.
 Requested convergence on MAX density matrix=1.00D-06.
 Requested convergence on             energy=1.00D-06.
 No special actions if energy rises.
 Integral accuracy reduced to 1.0D-05 until final iterations.
 Initial convergence to 1.0D-05 achieved.  Increase integral accuracy.
 SCF Done:  E(RB3LYP) =  -846.258082648     A.U. after   16 cycles
            NFock= 16  Conv=0.24D-08     -V/T= 2.0103

 **********************************************************************

            Population analysis using the SCF Density.

 **********************************************************************

 Orbital symmetries:
       Occupied  (A') (A') (A') (A') (A') (A') (A') (A') (A') (A')
                 (A') (A') (A') (A') (A') (A') (A') (A') (A') (A')
                 (A') (A') (A') (A') (A') (A') (A') (A') (A') (A')
                 (A') (A') (A') (A') (A') (A') (A') (A') (A') (A')
                 (A') (A') (A') (A') (A') (A') (A') (A') (A') (A')
                 (A') (A') (A') (A") (A') (A') (A") (A') (A') (A")
                 (A') (A') (A') (A') (A") (A') (A") (A") (A") (A")
                 (A") (A") (A")
       Virtual   (A") (A") (A") (A") (A") (A") (A") (A') (A') (A')
                 (A') (A') (A") (A') (A') (A') (A') (A') (A") (A')
                 (A') (A') (A") (A') (A") (A') (A') (A') (A') (A')
                 (A') (A') (A') (A') (A') (A') (A') (A') (A') (A')
                 (A') (A') (A') (A') (A') (A') (A') (A') (A') (A')
                 (A') (A') (A') (A') (A') (A") (A') (A") (A') (A')
                 (A') (A") (A') (A') (A") (A') (A") (A') (A') (A")
                 (A') (A') (A") (A') (A") (A') (A') (A") (A") (A")
                 (A") (A') (A") (A") (A") (A') (A') (A') (A') (A')
                 (A') (A") (A') (A') (A") (A") (A') (A') (A') (A')
                 (A') (A") (A') (A') (A') (A') (A') (A') (A") (A')
                 (A') (A") (A') (A') (A') (A') (A') (A") (A') (A')
                 (A') (A') (A') (A') (A') (A') (A') (A') (A') (A')
                 (A') (A') (A') (A') (A') (A') (A') (A") (A") (A')
                 (A") (A') (A") (A") (A') (A') (A') (A') (A') (A')
                 (A") (A') (A") (A") (A') (A") (A") (A') (A") (A")
                 (A") (A') (A") (A") (A") (A") (A") (A') (A') (A')
                 (A') (A') (A') (A') (A') (A') (A') (A") (A') (A')
                 (A') (A") (A') (A') (A') (A") (A') (A') (A") (A')
                 (A') (A') (A") (A') (A') (A") (A') (A') (A") (A')
                 (A') (A') (A') (A') (A") (A') (A') (A') (A") (A")
                 (A') (A") (A') (A') (A") (A') (A") (A") (A') (A")
                 (A") (A') (A") (A") (A") (A") (A') (A") (A') (A')
                 (A') (A') (A') (A") (A') (A') (A') (A") (A') (A')
                 (A") (A') (A') (A") (A') (A") (A') (A') (A') (A')
                 (A') (A') (A') (A') (A') (A') (A') (A') (A') (A')
                 (A') (A') (A')
 The electronic state is 1-A'.
 Alpha  occ. eigenvalues --  -10.20251 -10.20168 -10.19629 -10.19587 -10.19585
 Alpha  occ. eigenvalues --  -10.19553 -10.19535 -10.19456 -10.19288 -10.19243
 Alpha  occ. eigenvalues --  -10.19110 -10.19040 -10.19028 -10.19022 -10.18990
 Alpha  occ. eigenvalues --  -10.18972 -10.18966 -10.18962 -10.18940 -10.18897
 Alpha  occ. eigenvalues --  -10.18864 -10.18853  -0.89034  -0.87519  -0.84919
 Alpha  occ. eigenvalues --   -0.82023  -0.78960  -0.78138  -0.76475  -0.75285
 Alpha  occ. eigenvalues --   -0.73229  -0.71878  -0.68594  -0.66277  -0.63083
 Alpha  occ. eigenvalues --   -0.61342  -0.61176  -0.60428  -0.58691  -0.56447
 Alpha  occ. eigenvalues --   -0.53350  -0.51886  -0.51569  -0.49854  -0.48770
 Alpha  occ. eigenvalues --   -0.47626  -0.45571  -0.45455  -0.44886  -0.43524
 Alpha  occ. eigenvalues --   -0.43104  -0.42463  -0.41859  -0.41807  -0.41154
 Alpha  occ. eigenvalues --   -0.40908  -0.39938  -0.39727  -0.38200  -0.36804
 Alpha  occ. eigenvalues --   -0.36730  -0.35577  -0.34522  -0.33646  -0.33405
 Alpha  occ. eigenvalues --   -0.33260  -0.31022  -0.29894  -0.27968  -0.26575
 Alpha  occ. eigenvalues --   -0.24176  -0.22453  -0.18381
 Alpha virt. eigenvalues --   -0.08921  -0.04519  -0.02765  -0.00468   0.01338
 Alpha virt. eigenvalues --    0.02891   0.04448   0.06351   0.06612   0.06668
 Alpha virt. eigenvalues --    0.08308   0.08528   0.09072   0.10380   0.10602
 Alpha virt. eigenvalues --    0.11961   0.12725   0.13856   0.14020   0.14378
 Alpha virt. eigenvalues --    0.16390   0.17302   0.19209   0.20986   0.22079
 Alpha virt. eigenvalues --    0.22698   0.23631   0.25108   0.26416   0.26908
 Alpha virt. eigenvalues --    0.27307   0.27511   0.28268   0.28677   0.29616
 Alpha virt. eigenvalues --    0.29688   0.31422   0.31827   0.32009   0.32848
 Alpha virt. eigenvalues --    0.33444   0.34565   0.35154   0.36308   0.36507
 Alpha virt. eigenvalues --    0.37019   0.37771   0.37892   0.38895   0.39973
 Alpha virt. eigenvalues --    0.41617   0.42167   0.42712   0.43712   0.44268
 Alpha virt. eigenvalues --    0.44513   0.45076   0.45769   0.45828   0.46915
 Alpha virt. eigenvalues --    0.47393   0.47530   0.47630   0.48074   0.48247
 Alpha virt. eigenvalues --    0.48951   0.49745   0.49854   0.50212   0.50914
 Alpha virt. eigenvalues --    0.51830   0.51973   0.52751   0.52868   0.54256
 Alpha virt. eigenvalues --    0.54259   0.56004   0.56360   0.56391   0.58051
 Alpha virt. eigenvalues --    0.60202   0.60244   0.60810   0.62234   0.64046
 Alpha virt. eigenvalues --    0.64757   0.66085   0.66527   0.66902   0.67158
 Alpha virt. eigenvalues --    0.67653   0.68314   0.68488   0.69430   0.69570
 Alpha virt. eigenvalues --    0.69664   0.69833   0.70301   0.71171   0.71300
 Alpha virt. eigenvalues --    0.72725   0.72927   0.73378   0.73648   0.74469
 Alpha virt. eigenvalues --    0.75622   0.75884   0.76657   0.77106   0.78169
 Alpha virt. eigenvalues --    0.78928   0.79032   0.79298   0.80321   0.81110
 Alpha virt. eigenvalues --    0.81800   0.82348   0.82904   0.83861   0.84608
 Alpha virt. eigenvalues --    0.85885   0.86326   0.87700   0.90792   0.92496
 Alpha virt. eigenvalues --    0.94842   0.98226   0.98658   1.02857   1.08007
 Alpha virt. eigenvalues --    1.10656   1.11293   1.12082   1.15988   1.16993
 Alpha virt. eigenvalues --    1.19438   1.20785   1.21265   1.21660   1.21729
 Alpha virt. eigenvalues --    1.23674   1.24286   1.24675   1.26173   1.26584
 Alpha virt. eigenvalues --    1.28038   1.28327   1.30197   1.31975   1.32753
 Alpha virt. eigenvalues --    1.34692   1.35234   1.37282   1.38456   1.39050
 Alpha virt. eigenvalues --    1.39838   1.41425   1.42409   1.42409   1.45257
 Alpha virt. eigenvalues --    1.46181   1.46791   1.47455   1.48504   1.49254
 Alpha virt. eigenvalues --    1.49288   1.49939   1.49949   1.50212   1.52182
 Alpha virt. eigenvalues --    1.55632   1.67877   1.69640   1.71066   1.71814
 Alpha virt. eigenvalues --    1.74461   1.75210   1.75640   1.77272   1.81285
 Alpha virt. eigenvalues --    1.81824   1.82249   1.83368   1.83643   1.85191
 Alpha virt. eigenvalues --    1.85404   1.85953   1.87087   1.87105   1.88489
 Alpha virt. eigenvalues --    1.90035   1.90153   1.90619   1.95342   1.95706
 Alpha virt. eigenvalues --    1.98528   1.99088   2.01784   2.03627   2.04951
 Alpha virt. eigenvalues --    2.06040   2.07476   2.08712   2.09851   2.12813
 Alpha virt. eigenvalues --    2.12903   2.14693   2.17202   2.18149   2.18809
 Alpha virt. eigenvalues --    2.19594   2.20398   2.20937   2.22644   2.23663
 Alpha virt. eigenvalues --    2.25152   2.26673   2.28320   2.28501   2.29003
 Alpha virt. eigenvalues --    2.31319   2.32255   2.32339   2.33403   2.34952
 Alpha virt. eigenvalues --    2.36491   2.37185   2.41167   2.44931   2.47954
 Alpha virt. eigenvalues --    2.48517   2.53123   2.56829   2.57146   2.59064
 Alpha virt. eigenvalues --    2.61139   2.61615   2.62025   2.63252   2.64246
 Alpha virt. eigenvalues --    2.64294   2.64651   2.66164   2.68410   2.69501
 Alpha virt. eigenvalues --    2.69863   2.71370   2.74214   2.77478   2.80281
 Alpha virt. eigenvalues --    2.82138   2.87700   2.88685   2.90733   2.93001
 Alpha virt. eigenvalues --    2.95896   3.01939   3.07037   3.25780   3.35380
 Alpha virt. eigenvalues --    3.40790   3.49738   3.52745
          Condensed to atoms (all electrons):
               1          2          3          4          5          6
     1  C    5.242513   0.136047   0.146974  -0.156892  -0.002293   0.000310
     2  C    0.136047   5.242852   0.227618   0.143186   0.019759  -0.001314
     3  C    0.146974   0.227618   5.460332   0.199566  -0.159444   0.018983
     4  C   -0.156892   0.143186   0.199566   5.425020   0.229218   0.142968
     5  C   -0.002293   0.019759  -0.159444   0.229218   5.736170   0.218667
     6  C    0.000310  -0.001314   0.018983   0.142968   0.218667   5.394370
     7  C   -0.000005   0.000016  -0.000957   0.020292  -0.157983   0.236141
     8  C    0.000000  -0.000000   0.000007  -0.001260   0.018693   0.120686
     9  C   -0.000000   0.000000  -0.000004   0.000258  -0.001636  -0.147805
    10  C   -0.000000   0.000000   0.000000  -0.000003   0.000090  -0.001606
    11  C    0.000000  -0.000000  -0.000000   0.000000  -0.000004   0.000074
    12  C    0.000000  -0.000000   0.000000  -0.000000   0.000010   0.000444
    13  C   -0.000000   0.000000  -0.000000  -0.000000   0.000000  -0.000003
    14  C    0.000000  -0.000000   0.000000  -0.000000  -0.000000   0.000006
    15  C   -0.000000   0.000000  -0.000000   0.000000  -0.000001  -0.000098
    16  C   -0.000000   0.000000  -0.000000   0.000001  -0.000056   0.000281
    17  C    0.000000  -0.000000   0.000000   0.000001  -0.000552   0.023146
    18  C    0.000016  -0.000005   0.000110  -0.001619   0.024970   0.034256
    19  C   -0.001332   0.000301  -0.001427  -0.135792   0.032667  -0.055341
    20  C    0.019789  -0.002259   0.025525   0.028741  -0.145466   0.033260
    21  C    0.143202  -0.156992   0.045432  -0.031721   0.027821  -0.133941
    22  C    0.227577   0.146987  -0.176023   0.045291   0.025757  -0.001634
    23  H    0.436308  -0.084936   0.015132  -0.001431   0.000044  -0.000001
    24  H   -0.084928   0.436358  -0.076800   0.015779  -0.000495   0.000009
    25  H    0.015487  -0.081106   0.437471  -0.079076  -0.022032   0.000782
    26  H   -0.000028   0.000594  -0.018512  -0.083335   0.436641  -0.080311
    27  H   -0.000000   0.000001  -0.000039   0.000638  -0.019370  -0.083048
    28  H    0.000000   0.000000   0.000000  -0.000000   0.000001  -0.000013
    29  H    0.000000  -0.000000   0.000000   0.000000   0.000000  -0.000001
    30  H   -0.000000  -0.000000   0.000000  -0.000000   0.000000  -0.000000
    31  H    0.000000   0.000000  -0.000000   0.000000   0.000000  -0.000000
    32  H   -0.000000   0.000000  -0.000000  -0.000000  -0.000000  -0.000001
    33  H    0.000000  -0.000000   0.000000   0.000001  -0.000054   0.001730
    34  H    0.000000  -0.000000   0.000001   0.000001  -0.000416   0.019129
    35  H    0.000599  -0.000027  -0.000311   0.017998  -0.002328   0.018473
    36  H   -0.081191   0.015485  -0.002065   0.017541  -0.000328  -0.000015
               7          8          9         10         11         12
     1  C   -0.000005   0.000000  -0.000000  -0.000000   0.000000   0.000000
     2  C    0.000016  -0.000000   0.000000   0.000000  -0.000000  -0.000000
     3  C   -0.000957   0.000007  -0.000004   0.000000  -0.000000   0.000000
     4  C    0.020292  -0.001260   0.000258  -0.000003   0.000000  -0.000000
     5  C   -0.157983   0.018693  -0.001636   0.000090  -0.000004   0.000010
     6  C    0.236141   0.120686  -0.147805  -0.001606   0.000074   0.000444
     7  C    5.712154   0.286618   0.012450   0.026124  -0.003442   0.022137
     8  C    0.286618   5.544033   0.034250   0.027931  -0.133576   0.004386
     9  C    0.012450   0.034250   5.497305   0.145102   0.156253  -0.171272
    10  C    0.026124   0.027931   0.145102   5.521360   0.191605   0.156305
    11  C   -0.003442  -0.133576   0.156253   0.191605   5.522260   0.145578
    12  C    0.022137   0.004386  -0.171272   0.156305   0.145578   5.487234
    13  C   -0.000250   0.026601  -0.001065   0.019296  -0.161543   0.231239
    14  C    0.000013  -0.004228  -0.000006  -0.001460   0.022235   0.149812
    15  C    0.000324   0.022245   0.000293   0.000215  -0.002309  -0.170302
    16  C   -0.029135  -0.147695   0.021985  -0.003814   0.027481   0.021055
    17  C   -0.148061   0.203041   0.003032  -0.137306   0.025148   0.082472
    18  C   -0.147324   0.033077   0.235330  -0.160643   0.019870  -0.000953
    19  C    0.024080  -0.132611   0.152214   0.022352  -0.001505  -0.000065
    20  C    0.025145  -0.001253   0.020176  -0.001062   0.000018  -0.000005
    21  C   -0.001817   0.000221  -0.001452   0.000015  -0.000000   0.000000
    22  C    0.000107  -0.000003   0.000013  -0.000000  -0.000000  -0.000000
    23  H    0.000000   0.000000  -0.000000  -0.000000   0.000000  -0.000000
    24  H   -0.000000  -0.000000   0.000000   0.000000  -0.000000   0.000000
    25  H   -0.000047   0.000000  -0.000000   0.000000  -0.000000   0.000000
    26  H   -0.021275   0.000603   0.000011   0.000001  -0.000000   0.000000
    27  H    0.418170  -0.054609   0.019143  -0.000281  -0.000035  -0.001059
    28  H   -0.000368   0.016055  -0.087589   0.444173  -0.080535   0.016855
    29  H    0.000057  -0.001644   0.016800  -0.078971   0.442964  -0.088171
    30  H    0.000009  -0.000159  -0.000089   0.001165  -0.022436  -0.079974
    31  H   -0.000000   0.000054  -0.000000   0.000010  -0.000540   0.015748
    32  H   -0.000001  -0.000300   0.000008  -0.000001   0.000031  -0.001644
    33  H    0.010747  -0.040752  -0.001464  -0.000029  -0.000251   0.018926
    34  H   -0.002556   0.017361  -0.084784  -0.020584   0.001147  -0.000078
    35  H   -0.000365  -0.000001   0.000717  -0.000044   0.000001  -0.000000
    36  H    0.000001  -0.000000   0.000000   0.000000   0.000000   0.000000
              13         14         15         16         17         18
     1  C   -0.000000   0.000000  -0.000000  -0.000000   0.000000   0.000016
     2  C    0.000000  -0.000000   0.000000   0.000000  -0.000000  -0.000005
     3  C   -0.000000   0.000000  -0.000000  -0.000000   0.000000   0.000110
     4  C   -0.000000  -0.000000   0.000000   0.000001   0.000001  -0.001619
     5  C    0.000000  -0.000000  -0.000001  -0.000056  -0.000552   0.024970
     6  C   -0.000003   0.000006  -0.000098   0.000281   0.023146   0.034256
     7  C   -0.000250   0.000013   0.000324  -0.029135  -0.148061  -0.147324
     8  C    0.026601  -0.004228   0.022245  -0.147695   0.203041   0.033077
     9  C   -0.001065  -0.000006   0.000293   0.021985   0.003032   0.235330
    10  C    0.019296  -0.001460   0.000215  -0.003814  -0.137306  -0.160643
    11  C   -0.161543   0.022235  -0.002309   0.027481   0.025148   0.019870
    12  C    0.231239   0.149812  -0.170302   0.021055   0.082472  -0.000953
    13  C    5.460605   0.191384   0.149905  -0.173112   0.045168   0.000053
    14  C    0.191384   5.234600   0.171348   0.143184  -0.155646  -0.000001
    15  C    0.149905   0.171348   5.208518   0.240291   0.122538   0.000001
    16  C   -0.173112   0.143184   0.240291   5.439306   0.263038  -0.000367
    17  C    0.045168  -0.155646   0.122538   0.263038   5.549859   0.025141
    18  C    0.000053  -0.000001   0.000001  -0.000367   0.025141   5.764700
    19  C   -0.000001  -0.000000   0.000004   0.000048  -0.003267   0.181621
    20  C   -0.000000   0.000000  -0.000000   0.000001   0.000119  -0.167216
    21  C    0.000000  -0.000000  -0.000000  -0.000000  -0.000003   0.020864
    22  C   -0.000000  -0.000000   0.000000   0.000000   0.000000  -0.000943
    23  H    0.000000  -0.000000   0.000000   0.000000   0.000000  -0.000000
    24  H   -0.000000  -0.000000   0.000000  -0.000000  -0.000000   0.000000
    25  H   -0.000000   0.000000  -0.000000  -0.000000   0.000000   0.000001
    26  H   -0.000000   0.000000  -0.000000   0.000005  -0.000044  -0.000394
    27  H    0.000033  -0.000049   0.001033   0.010934  -0.037705  -0.002123
    28  H   -0.000570   0.000013  -0.000002   0.000055  -0.001672  -0.021568
    29  H   -0.020242   0.001034  -0.000069  -0.000294   0.016009  -0.000600
    30  H    0.440646  -0.083274   0.016214  -0.002249   0.016939  -0.000001
    31  H   -0.079134   0.436374  -0.084145   0.015164  -0.001216   0.000000
    32  H    0.015545  -0.085737   0.436084  -0.075331   0.015761  -0.000000
    33  H   -0.001912   0.015693  -0.081891   0.417635  -0.047733   0.000027
    34  H   -0.000001   0.000000  -0.000000   0.000011  -0.000179   0.443038
    35  H    0.000000  -0.000000   0.000000   0.000000   0.000000  -0.020729
    36  H   -0.000000  -0.000000   0.000000   0.000000   0.000000  -0.000046
              19         20         21         22         23         24
     1  C   -0.001332   0.019789   0.143202   0.227577   0.436308  -0.084928
     2  C    0.000301  -0.002259  -0.156992   0.146987  -0.084936   0.436358
     3  C   -0.001427   0.025525   0.045432  -0.176023   0.015132  -0.076800
     4  C   -0.135792   0.028741  -0.031721   0.045291  -0.001431   0.015779
     5  C    0.032667  -0.145466   0.027821   0.025757   0.000044  -0.000495
     6  C   -0.055341   0.033260  -0.133941  -0.001634  -0.000001   0.000009
     7  C    0.024080   0.025145  -0.001817   0.000107   0.000000  -0.000000
     8  C   -0.132611  -0.001253   0.000221  -0.000003   0.000000  -0.000000
     9  C    0.152214   0.020176  -0.001452   0.000013  -0.000000   0.000000
    10  C    0.022352  -0.001062   0.000015  -0.000000  -0.000000   0.000000
    11  C   -0.001505   0.000018  -0.000000  -0.000000   0.000000  -0.000000
    12  C   -0.000065  -0.000005   0.000000  -0.000000  -0.000000   0.000000
    13  C   -0.000001  -0.000000   0.000000  -0.000000   0.000000  -0.000000
    14  C   -0.000000   0.000000  -0.000000  -0.000000  -0.000000  -0.000000
    15  C    0.000004  -0.000000  -0.000000   0.000000   0.000000   0.000000
    16  C    0.000048   0.000001  -0.000000   0.000000   0.000000  -0.000000
    17  C   -0.003267   0.000119  -0.000003   0.000000   0.000000  -0.000000
    18  C    0.181621  -0.167216   0.020864  -0.000943  -0.000000   0.000000
    19  C    5.446744   0.210084   0.145958   0.018983   0.000009  -0.000001
    20  C    0.210084   5.748160   0.225241  -0.159587  -0.000494   0.000044
    21  C    0.145958   0.225241   5.428634   0.199030   0.015767  -0.001428
    22  C    0.018983  -0.159587   0.199030   5.460768  -0.076768   0.015127
    23  H    0.000009  -0.000494   0.015767  -0.076768   0.669237  -0.012419
    24  H   -0.000001   0.000044  -0.001428   0.015127  -0.012419   0.669289
    25  H   -0.000012  -0.000331   0.017557  -0.002070  -0.000316  -0.012459
    26  H    0.018537  -0.002291   0.017848  -0.000302  -0.000001  -0.000014
    27  H    0.018686  -0.000449   0.000016   0.000001   0.000000  -0.000000
    28  H    0.001277  -0.000066   0.000000   0.000000  -0.000000   0.000000
    29  H    0.000013  -0.000000  -0.000000  -0.000000  -0.000000   0.000000
    30  H    0.000000  -0.000000   0.000000   0.000000  -0.000000   0.000000
    31  H    0.000000  -0.000000   0.000000  -0.000000   0.000000  -0.000000
    32  H    0.000000   0.000000   0.000000   0.000000   0.000000  -0.000000
    33  H   -0.000026  -0.000000  -0.000000  -0.000000  -0.000000   0.000000
    34  H   -0.084346  -0.020241   0.000710  -0.000041  -0.000000   0.000000
    35  H   -0.082377   0.439369  -0.083831  -0.018561  -0.000014  -0.000001
    36  H    0.000796  -0.021996  -0.079081   0.437596  -0.012448  -0.000316
              25         26         27         28         29         30
     1  C    0.015487  -0.000028  -0.000000   0.000000   0.000000  -0.000000
     2  C   -0.081106   0.000594   0.000001   0.000000  -0.000000  -0.000000
     3  C    0.437471  -0.018512  -0.000039   0.000000   0.000000   0.000000
     4  C   -0.079076  -0.083335   0.000638  -0.000000   0.000000  -0.000000
     5  C   -0.022032   0.436641  -0.019370   0.000001   0.000000   0.000000
     6  C    0.000782  -0.080311  -0.083048  -0.000013  -0.000001  -0.000000
     7  C   -0.000047  -0.021275   0.418170  -0.000368   0.000057   0.000009
     8  C    0.000000   0.000603  -0.054609   0.016055  -0.001644  -0.000159
     9  C   -0.000000   0.000011   0.019143  -0.087589   0.016800  -0.000089
    10  C    0.000000   0.000001  -0.000281   0.444173  -0.078971   0.001165
    11  C   -0.000000  -0.000000  -0.000035  -0.080535   0.442964  -0.022436
    12  C    0.000000   0.000000  -0.001059   0.016855  -0.088171  -0.079974
    13  C   -0.000000  -0.000000   0.000033  -0.000570  -0.020242   0.440646
    14  C    0.000000   0.000000  -0.000049   0.000013   0.001034  -0.083274
    15  C   -0.000000  -0.000000   0.001033  -0.000002  -0.000069   0.016214
    16  C   -0.000000   0.000005   0.010934   0.000055  -0.000294  -0.002249
    17  C    0.000000  -0.000044  -0.037705  -0.001672   0.016009   0.016939
    18  C    0.000001  -0.000394  -0.002123  -0.021568  -0.000600  -0.000001
    19  C   -0.000012   0.018537   0.018686   0.001277   0.000013   0.000000
    20  C   -0.000331  -0.002291  -0.000449  -0.000066  -0.000000  -0.000000
    21  C    0.017557   0.017848   0.000016   0.000000  -0.000000   0.000000
    22  C   -0.002070  -0.000302   0.000001   0.000000  -0.000000   0.000000
    23  H   -0.000316  -0.000001   0.000000  -0.000000  -0.000000  -0.000000
    24  H   -0.012459  -0.000014  -0.000000   0.000000   0.000000   0.000000
    25  H    0.677536   0.007528  -0.000002  -0.000000  -0.000000   0.000000
    26  H    0.007528   0.685002   0.009193   0.000000   0.000000   0.000000
    27  H   -0.000002   0.009193   0.687123   0.000010   0.000000   0.000001
    28  H   -0.000000   0.000000   0.000010   0.680526  -0.013099  -0.000019
    29  H   -0.000000   0.000000   0.000000  -0.013099   0.680549   0.006614
    30  H    0.000000   0.000000   0.000001  -0.000019   0.006614   0.678557
    31  H    0.000000   0.000000  -0.000000  -0.000000  -0.000019  -0.012564
    32  H   -0.000000   0.000000   0.000031   0.000000  -0.000001  -0.000339
    33  H    0.000000  -0.000020   0.001210   0.000000   0.000010   0.000028
    34  H    0.000000   0.000013   0.000028   0.006992  -0.000022  -0.000000
    35  H    0.000012   0.000035   0.000012   0.000000  -0.000000   0.000000
    36  H    0.000036   0.000012   0.000000  -0.000000  -0.000000   0.000000
              31         32         33         34         35         36
     1  C    0.000000  -0.000000   0.000000   0.000000   0.000599  -0.081191
     2  C    0.000000   0.000000  -0.000000  -0.000000  -0.000027   0.015485
     3  C   -0.000000  -0.000000   0.000000   0.000001  -0.000311  -0.002065
     4  C    0.000000  -0.000000   0.000001   0.000001   0.017998   0.017541
     5  C    0.000000  -0.000000  -0.000054  -0.000416  -0.002328  -0.000328
     6  C   -0.000000  -0.000001   0.001730   0.019129   0.018473  -0.000015
     7  C   -0.000000  -0.000001   0.010747  -0.002556  -0.000365   0.000001
     8  C    0.000054  -0.000300  -0.040752   0.017361  -0.000001  -0.000000
     9  C   -0.000000   0.000008  -0.001464  -0.084784   0.000717   0.000000
    10  C    0.000010  -0.000001  -0.000029  -0.020584  -0.000044   0.000000
    11  C   -0.000540   0.000031  -0.000251   0.001147   0.000001   0.000000
    12  C    0.015748  -0.001644   0.018926  -0.000078  -0.000000   0.000000
    13  C   -0.079134   0.015545  -0.001912  -0.000001   0.000000  -0.000000
    14  C    0.436374  -0.085737   0.015693   0.000000  -0.000000  -0.000000
    15  C   -0.084145   0.436084  -0.081891  -0.000000   0.000000   0.000000
    16  C    0.015164  -0.075331   0.417635   0.000011   0.000000   0.000000
    17  C   -0.001216   0.015761  -0.047733  -0.000179   0.000000   0.000000
    18  C    0.000000  -0.000000   0.000027   0.443038  -0.020729  -0.000046
    19  C    0.000000   0.000000  -0.000026  -0.084346  -0.082377   0.000796
    20  C   -0.000000   0.000000  -0.000000  -0.020241   0.439369  -0.021996
    21  C    0.000000   0.000000  -0.000000   0.000710  -0.083831  -0.079081
    22  C   -0.000000   0.000000  -0.000000  -0.000041  -0.018561   0.437596
    23  H    0.000000   0.000000  -0.000000  -0.000000  -0.000014  -0.012448
    24  H   -0.000000  -0.000000   0.000000   0.000000  -0.000001  -0.000316
    25  H    0.000000  -0.000000   0.000000   0.000000   0.000012   0.000036
    26  H    0.000000   0.000000  -0.000020   0.000013   0.000035   0.000012
    27  H   -0.000000   0.000031   0.001210   0.000028   0.000012   0.000000
    28  H   -0.000000   0.000000   0.000000   0.006992   0.000000  -0.000000
    29  H   -0.000019  -0.000001   0.000010  -0.000022  -0.000000  -0.000000
    30  H   -0.012564  -0.000339   0.000028  -0.000000   0.000000   0.000000
    31  H    0.671975  -0.012366  -0.000350  -0.000000   0.000000   0.000000
    32  H   -0.012366   0.671557  -0.013331   0.000000   0.000000   0.000000
    33  H   -0.000350  -0.013331   0.677221   0.000001  -0.000000  -0.000000
    34  H   -0.000000   0.000000   0.000001   0.687019   0.007966  -0.000001
    35  H    0.000000   0.000000  -0.000000   0.007966   0.686660   0.007448
    36  H    0.000000   0.000000  -0.000000  -0.000001   0.007448   0.677484
 Mulliken charges:
               1
     1  C   -0.042153
     2  C   -0.042564
     3  C   -0.141569
     4  C    0.204628
     5  C   -0.258049
     6  C    0.241420
     7  C   -0.280998
     8  C    0.162228
     9  C    0.181829
    10  C   -0.149941
    11  C   -0.148487
    12  C    0.161321
    13  C   -0.142642
    14  C   -0.035296
    15  C   -0.030195
    16  C   -0.168422
    17  C    0.141974
    18  C   -0.258543
    19  C    0.223729
    20  C   -0.252957
    21  C    0.201949
    22  C   -0.141305
    23  H    0.052330
    24  H    0.052254
    25  H    0.041041
    26  H    0.030504
    27  H    0.032508
    28  H    0.039541
    29  H    0.039082
    30  H    0.040932
    31  H    0.051011
    32  H    0.050036
    33  H    0.044585
    34  H    0.029833
    35  H    0.029298
    36  H    0.041086
 Sum of Mulliken charges =  -0.00000
 Mulliken charges with hydrogens summed into heavy atoms:
               1
     1  C    0.010177
     2  C    0.009691
     3  C   -0.100528
     4  C    0.204628
     5  C   -0.227545
     6  C    0.241420
     7  C   -0.248490
     8  C    0.162228
     9  C    0.181829
    10  C   -0.110399
    11  C   -0.109405
    12  C    0.161321
    13  C   -0.101710
    14  C    0.015715
    15  C    0.019841
    16  C   -0.123837
    17  C    0.141974
    18  C   -0.228710
    19  C    0.223729
    20  C   -0.223659
    21  C    0.201949
    22  C   -0.100219
 Electronic spatial extent (au):  <R**2>=           8502.6146
 Charge=             -0.0000 electrons
 Dipole moment (field-independent basis, Debye):
    X=              0.0612    Y=             -0.0554    Z=              0.0000  Tot=              0.0825
 Quadrupole moment (field-independent basis, Debye-Ang):
   XX=           -111.7784   YY=           -110.4299   ZZ=           -134.8380
   XY=              0.7098   XZ=             -0.0000   YZ=              0.0000
 Traceless Quadrupole moment (field-independent basis, Debye-Ang):
   XX=              7.2371   YY=              8.5855   ZZ=            -15.8226
   XY=              0.7098   XZ=             -0.0000   YZ=              0.0000
 Octapole moment (field-independent basis, Debye-Ang**2):
  XXX=              1.1658  YYY=             -4.8115  ZZZ=             -0.0000  XYY=              1.7709
  XXY=              1.1449  XXZ=              0.0000  XZZ=             -0.2122  YZZ=              0.0324
  YYZ=             -0.0000  XYZ=             -0.0000
 Hexadecapole moment (field-independent basis, Debye-Ang**3):
 XXXX=          -3441.6706 YYYY=          -7322.9869 ZZZZ=           -148.8143 XXXY=          -1691.9775
 XXXZ=             -0.0000 YYYX=          -1674.9179 YYYZ=              0.0000 ZZZX=              0.0000
 ZZZY=              0.0000 XXYY=          -1781.4774 XXZZ=           -713.7985 YYZZ=          -1508.9380
 XXYZ=             -0.0000 YYXZ=             -0.0000 ZZXY=           -685.4781
 N-N= 1.516356771308D+03 E-N=-4.990510576887D+03  KE= 8.376426726126D+02
 Symmetry A'   KE= 8.140499085152D+02
 Symmetry A"   KE= 2.359276409743D+01
   2 Symmetry operations used in ECPInt.
 ECPInt:  NShTT=   12880 NPrTT=   51688 LenC2=   11430 LenP2D=   31097.
 LDataN:  DoStor=T MaxTD1= 5 Len=  102
 Calling FoFJK, ICntrl=      2127 FMM=F ISym2X=1 I1Cent= 0 IOpClX= 0 NMat=1 NMatS=1 NMatT=0.
 ***** Axes restored to original set *****
 -------------------------------------------------------------------
 Center     Atomic                   Forces (Hartrees/Bohr)
 Number     Number              X              Y              Z
 -------------------------------------------------------------------
      1        6           0.013068071   -0.032054529    0.006386996
      2        6           0.023401246    0.025671981   -0.005201464
      3        6          -0.034375372    0.004200945   -0.000753905
      4        6           0.022466142    0.023218990   -0.004707769
      5        6          -0.003172867   -0.002000687    0.000408799
      6        6           0.003720670    0.031896742   -0.006398132
      7        6           0.026516854   -0.006465257    0.001227434
      8        6          -0.030347137    0.031587952   -0.006249556
      9        6          -0.034837575   -0.014953123    0.003083677
     10        6           0.053742905   -0.009422223    0.001750381
     11        6          -0.039936662   -0.039151827    0.007943462
     12        6           0.012216594    0.015558424   -0.003147327
     13        6           0.007473284    0.014310595   -0.002885321
     14        6           0.005366851   -0.014480614    0.002886688
     15        6          -0.018409911    0.000878276   -0.000129045
     16        6           0.003599325    0.000295448   -0.000068339
     17        6           0.012715997    0.019294016   -0.003896807
     18        6           0.014164383    0.002465799   -0.000529938
     19        6          -0.012426688   -0.032029821    0.006446949
     20        6          -0.003730496    0.004001680   -0.000792007
     21        6           0.013078893   -0.029540540    0.005883436
     22        6          -0.034165147    0.007719142   -0.001459107
     23        1          -0.004401021   -0.002385674    0.000489035
     24        1          -0.003328579    0.003756348   -0.000743893
     25        1           0.003188104    0.003765560   -0.000762327
     26        1           0.000702968    0.003639626   -0.000730777
     27        1           0.001025382    0.003769032   -0.000757517
     28        1          -0.003469949   -0.003139870    0.000637724
     29        1           0.004576343   -0.000832038    0.000155000
     30        1           0.000363077   -0.005279986    0.001056614
     31        1           0.005316074    0.000910554   -0.000195910
     32        1          -0.000128317    0.004871993   -0.000975494
     33        1          -0.005556834    0.001203121   -0.000226829
     34        1           0.000463770   -0.003076803    0.000615078
     35        1          -0.000565373   -0.003595665    0.000721622
     36        1           0.001684994   -0.004607566    0.000918569
 -------------------------------------------------------------------
 Cartesian Forces:  Max     0.053742905 RMS     0.014287690

 GradGradGradGradGradGradGradGradGradGradGradGradGradGradGradGradGradGrad
 Berny optimization.
 FormGI is forming the generalized inverse of G from B-inverse, IUseBI=4.
 Internal  Forces:  Max     0.038205178 RMS     0.007143489
 Search for a local minimum.
 Step number   1 out of a maximum of  216
 All quantities printed in internal units (Hartrees-Bohrs-Radians)
 Mixed Optimization -- RFO/linear search
 Second derivative matrix not updated -- first step.
 ITU=  0
     Eigenvalues ---    0.01726   0.01772   0.01806   0.01901   0.01931
     Eigenvalues ---    0.01941   0.01982   0.01996   0.01996   0.02003
     Eigenvalues ---    0.02006   0.02008   0.02010   0.02017   0.02019
     Eigenvalues ---    0.02022   0.02033   0.02036   0.02045   0.02055
     Eigenvalues ---    0.02083   0.02084   0.02085   0.02100   0.02138
     Eigenvalues ---    0.02151   0.02162   0.02166   0.02170   0.02181
     Eigenvalues ---    0.02183   0.02197   0.02237   0.16000   0.16000
     Eigenvalues ---    0.16000   0.16000   0.16000   0.16000   0.16000
     Eigenvalues ---    0.16000   0.16000   0.16000   0.16000   0.16000
     Eigenvalues ---    0.16000   0.16000   0.22000   0.22000   0.22395
     Eigenvalues ---    0.22507   0.22701   0.23051   0.23380   0.23787
     Eigenvalues ---    0.24084   0.24373   0.24568   0.24660   0.25000
     Eigenvalues ---    0.25000   0.25000   0.34917   0.34992   0.34995
     Eigenvalues ---    0.35023   0.35029   0.35043   0.35070   0.35072
     Eigenvalues ---    0.35174   0.35177   0.35183   0.35204   0.35219
     Eigenvalues ---    0.35275   0.37005   0.37456   0.38566   0.39961
     Eigenvalues ---    0.40141   0.40467   0.40783   0.41495   0.42598
     Eigenvalues ---    0.43255   0.43281   0.44362   0.44473   0.44568
     Eigenvalues ---    0.44750   0.44786   0.44910   0.45056   0.45131
     Eigenvalues ---    0.45387   0.45703   0.45762   0.45922   0.46546
     Eigenvalues ---    0.46697   0.47366
 RFO step:  Lambda=-2.38799503D-02 EMin= 1.72617863D-02
 Linear search not attempted -- first point.
 Iteration  1 RMS(Cart)=  0.03733965 RMS(Int)=  0.00027191
 Iteration  2 RMS(Cart)=  0.00039387 RMS(Int)=  0.00003609
 Iteration  3 RMS(Cart)=  0.00000008 RMS(Int)=  0.00003609
 ClnCor:  largest displacement from symmetrization is 4.40D-08 for atom    26.
 Variable       Old X    -DE/DX   Delta X   Delta X   Delta X     New X
                                 (Linear)    (Quad)   (Total)
    R1        2.62929   0.02924   0.00000   0.05699   0.05700   2.68628
    R2        2.63745  -0.01460   0.00000  -0.03101  -0.03101   2.60645
    R3        2.05393   0.00497   0.00000   0.01323   0.01323   2.06716
    R4        2.63747  -0.01452   0.00000  -0.03087  -0.03087   2.60659
    R5        2.05379   0.00501   0.00000   0.01334   0.01334   2.06713
    R6        2.65480   0.01844   0.00000   0.04012   0.04012   2.69492
    R7        2.05561   0.00429   0.00000   0.01145   0.01145   2.06706
    R8        2.65480  -0.00039   0.00000  -0.00119  -0.00120   2.65360
    R9        2.66573   0.03353   0.00000   0.07410   0.07410   2.73983
   R10        2.65707   0.00267   0.00000   0.00586   0.00584   2.66292
   R11        2.05688   0.00378   0.00000   0.01011   0.01011   2.06698
   R12        2.66138   0.00657   0.00000   0.01441   0.01431   2.67569
   R13        2.65206   0.03821   0.00000   0.08302   0.08293   2.73499
   R14        2.68137  -0.02081   0.00000  -0.04785  -0.04787   2.63349
   R15        2.05345   0.00395   0.00000   0.01051   0.01051   2.06396
   R16        2.67572   0.02921   0.00000   0.06302   0.06313   2.73885
   R17        2.72519   0.01046   0.00000   0.02583   0.02589   2.75108
   R18        2.64092   0.03327   0.00000   0.06876   0.06874   2.70966
   R19        2.65663  -0.00671   0.00000  -0.01459  -0.01448   2.64215
   R20        2.62987  -0.02302   0.00000  -0.04722  -0.04727   2.58260
   R21        2.05627   0.00379   0.00000   0.01014   0.01014   2.06641
[...]
 0635,-0.00001689,0.00000339,0.00000684,0.00001351,-0.00000273,-0.00002
 027,-0.00001245,0.00000253,0.00003177,0.00003455,-0.00000700,-0.000064
 16,-0.00002794,0.00000575,0.00006822,0.00006753,-0.00001376,-0.0000793
 2,-0.00003685,0.00000792,0.00060435,-0.00128814,0.00025698,-0.00036159
 ,-0.00001712,0.00000357,-0.00012400,0.00006178,-0.00001177,0.00021284,
 0.00009498,-0.00002192,-0.00099649,0.00028255,-0.00005591,-0.00308453,
 0.00275509,-0.00052825,0.00943208,0.02301537,-0.00462476,-0.07255416,-
 0.05872475,0.01185190,-0.00256513,-0.02992557,0.00600960,-0.00523200,-
 0.00037108,0.00010721,-0.00003837,-0.00014938,0.00002998,0.00006222,-0
 .00003419,0.00000678,-0.00003785,0.00001848,-0.00000362,0.00001525,-0.
 00003043,0.00000606,-0.00001112,0.00001383,-0.00000274,-0.00000186,0.0
 0000008,0.,-0.00000323,0.00000113,-0.00000021,-0.00000033,0.00000464,-
 0.00000092,-0.00000123,0.00000866,-0.00000172,0.00000877,0.00003683,-0
 .00000736,0.00000947,-0.00001205,0.00000264,-0.00000124,-0.00007540,0.
 00001520,0.00027028,0.00109473,-0.00021938,0.00104931,-0.00079541,0.00
 014748,0.07222788,-0.00001766,0.00000401,-0.00000114,-0.00001183,-0.00
 000404,0.00000051,0.00000020,-0.00002439,0.00000413,-0.00000529,0.0000
 1215,-0.00000245,-0.00000686,-0.00004234,0.00000776,0.00001102,0.00002
 579,-0.00000999,-0.00001596,-0.00004565,0.00003591,0.00023682,-0.00025
 797,0.00009139,-0.00019086,0.00001996,-0.00006453,-0.00001220,0.000005
 12,0.00002125,-0.00003080,0.00000575,-0.00018667,0.00041753,0.00070493
 ,-0.00028798,0.00399689,-0.00067694,0.00136253,-0.00781118,-0.01511954
 ,0.00375976,-0.05909227,-0.31215323,0.05520574,0.00059649,-0.00451606,
 0.00162834,-0.00131991,0.00178776,0.00118457,0.00002302,-0.00003546,0.
 00000440,-0.00002132,-0.00000412,0.00000761,0.00000932,0.00002193,-0.0
 0000519,-0.00001485,-0.00000587,0.00000152,0.00000991,0.00002051,-0.00
 000399,-0.00000522,-0.00000042,0.00000022,-0.00000594,0.00000269,-0.00
 000017,0.00000186,0.00000591,-0.00000076,0.00000158,0.00000683,-0.0000
 0040,-0.00000072,-0.00000678,0.00000458,-0.00001480,-0.00001323,0.0000
 2220,0.00001622,0.00002222,0.00000290,-0.00037815,-0.00078463,0.000203
 18,0.00009272,0.00080464,-0.00088266,0.06375069,0.32954874,0.00000355,
 -0.00000114,-0.00000167,0.00000235,0.00000045,-0.00000174,0.,0.0000041
 7,-0.00000458,0.00000098,-0.00000255,0.00000036,0.00000153,0.00000781,
 -0.00000526,-0.00000244,-0.00001013,-0.00002190,0.00000374,0.00003597,
 0.00012624,-0.00004846,0.00009527,0.00018235,0.00003837,-0.00006497,-0
 .00029173,0.00000304,0.00002106,0.00010683,0.00000327,-0.00018699,-0.0
 0088918,-0.00008294,-0.00028763,-0.00066973,-0.00077697,0.00136569,0.0
 0590500,0.00154955,0.00368128,0.00281131,0.01192551,0.05520480,-0.0483
 6535,-0.00010372,0.00170604,0.00327990,0.00029725,0.00118215,0.0074476
 5,-0.00000455,0.00000484,-0.00001416,0.00000420,0.00000764,0.00003206,
 -0.00000178,-0.00000521,-0.00000280,0.00000294,0.00000156,0.00000120,-
 0.00000196,-0.00000400,0.00000152,0.00000105,0.00000021,0.00000057,0.0
 0000120,-0.00000018,0.00000182,-0.00000037,-0.00000077,0.00000228,-0.0
 0000030,-0.00000042,0.00000495,0.00000016,0.00000449,0.00001518,0.0000
 0319,0.00002219,0.00009296,-0.00000315,0.00000313,0.00003626,0.0000756
 2,0.00019943,0.00018486,-0.00003041,-0.00088040,-0.00342463,-0.0128872
 6,-0.06102586,0.03793026,0.00000656,0.00001332,-0.00000269,-0.00000126
 ,-0.00001730,0.00000348,0.00002365,0.00001566,-0.00000323,-0.00004222,
 -0.00002595,0.00000523,0.00006781,-0.00001809,0.00000346,-0.00005222,-
 0.00004293,0.00000806,-0.00213543,-0.00232400,0.00047104,-0.00129833,0
 .00095680,-0.00019693,0.00014441,0.00001826,-0.00000413,0.00006708,0.0
 0002182,-0.00000489,0.00038561,-0.00027031,0.00005390,0.00033575,-0.00
 193590,0.00040246,0.00001990,-0.00090994,0.00018090,-0.00433044,-0.003
 17384,0.00066558,-0.01781437,0.02308929,-0.00456696,-0.19798156,0.1369
 5438,-0.02702484,0.00957956,-0.00427068,0.00084074,0.00001934,0.000089
 82,-0.00001788,-0.00007160,0.00002051,-0.00000395,0.00003555,-0.000030
 41,0.00000608,-0.00001126,0.00003570,-0.00000710,0.00000709,-0.0000171
 7,0.00000341,0.00000468,0.00000069,-0.00000015,0.00000621,-0.00000228,
 0.00000045,-0.00000176,-0.00000446,0.00000091,-0.00000543,0.00000960,-
 0.00000184,-0.00283711,-0.00157567,0.00032627,-0.00000415,0.00001281,-
 0.00000251,-0.00001545,-0.00012074,0.00002402,-0.00001989,0.00008772,-
 0.00002012,-0.00085974,0.00099676,-0.00019718,0.00122809,-0.00019126,0
 .00002339,0.21553086,-0.00000976,0.00000644,-0.00000168,0.00000422,-0.
 00002399,0.00000543,0.00002028,0.00000892,-0.00000452,-0.00002189,-0.0
 0001791,-0.00000212,-0.00002420,-0.00005202,0.00001099,-0.00036241,0.0
 0081113,-0.00021408,0.00036703,-0.00115393,0.00024014,0.00140010,0.000
 72168,-0.00082469,-0.00003884,-0.00019410,0.00003083,0.00010432,0.0000
 2611,-0.00003267,0.00141635,-0.00033120,0.00012140,-0.00326586,-0.0039
 6591,0.00202758,-0.00086353,-0.00015895,-0.00006814,-0.00187353,0.0007
 9788,0.00132882,-0.00837907,0.00917753,-0.00085035,0.13748314,-0.19197
 668,0.03039174,0.02285745,-0.01514476,0.00374171,0.00004324,0.00018284
 ,-0.00002438,0.00016904,0.00004946,-0.00001251,0.00000526,0.00008845,-
 0.00001134,-0.00003416,0.00002461,-0.00000306,0.00001042,-0.00000481,0
 .00000044,0.00000512,0.00000125,-0.00000019,0.00000544,-0.00000110,0.0
 0000066,-0.00000362,0.00000004,0.00000103,-0.00002613,0.00002679,0.000
 00025,-0.00140829,0.00128535,0.00001825,-0.00006978,0.00000652,0.00000
 261,-0.00009730,-0.00042751,0.00007025,0.00009636,-0.00004757,-0.00019
 519,-0.00040990,0.00026151,-0.00002976,0.00028827,0.00071501,-0.001071
 65,-0.14741849,0.19927982,0.00000193,-0.00000174,-0.00000171,-0.000000
 83,0.00000548,0.00000208,-0.00000416,-0.00000451,-0.00001248,0.0000044
 2,-0.00000211,-0.00002837,0.00000468,0.00001097,0.00000032,0.00007205,
 -0.00021489,-0.00021944,-0.00006795,0.00024699,0.00000038,-0.00028572,
 -0.00082356,-0.00321229,0.00000731,0.00003069,-0.00004681,-0.00002141,
 -0.00003246,-0.00012911,-0.00028392,0.00012569,0.00026846,0.00066884,0
 .00202420,0.00570859,0.00017161,-0.00006802,-0.00049695,0.00040514,0.0
 0133214,0.00714066,0.00173589,-0.00093046,0.00500741,-0.02713075,0.030
 39308,-0.04451049,-0.00459281,0.00381077,0.00307545,-0.00000855,-0.000
 02450,0.00006658,-0.00003370,-0.00001213,-0.00000832,-0.00000106,-0.00
 001125,0.00003415,0.00000689,-0.00000324,0.00000954,-0.00000211,0.0000
 0051,-0.00000256,-0.00000104,-0.00000018,0.00000039,-0.00000110,0.0000
 0068,0.00000215,0.00000074,0.00000103,0.00000494,0.00000532,0.00000016
 ,0.00002768,0.00029275,0.00001868,0.00135411,0.00001404,0.00000240,0.0
 0001816,0.00001933,0.00007031,-0.00009214,-0.00002185,-0.00019517,-0.0
 0098171,0.00008456,-0.00003334,0.00011418,-0.00007266,-0.00107042,-0.0
 0441716,0.02904028,-0.03464324,0.03130721,0.00004803,-0.00002943,0.000
 00576,-0.00000939,0.00006727,-0.00001350,-0.00006926,-0.00004264,0.000
 00883,0.00022571,0.00009817,-0.00002075,0.00049150,0.00108811,-0.00021
 884,-0.00368957,0.00177757,-0.00033414,-0.00072498,0.00026221,-0.00005
 184,-0.00479996,0.00005503,0.00001806,-0.00166869,-0.02863424,0.005751
 62,0.00098266,-0.00219350,0.00042439,0.00011922,0.00041351,-0.00008314
 ,0.00016018,-0.00023046,0.00004538,0.00001807,0.00014105,-0.00002821,-
 0.00000746,-0.00003291,0.00000661,-0.00000748,-0.00009347,0.00001874,-
 0.00041618,0.00007653,-0.00001379,0.00026842,-0.00143110,0.00028650,-0
 .06575787,-0.04493717,0.00907464,0.00732131,0.02332781,-0.00468038,0.0
 0128843,0.00145457,-0.00030262,0.00015085,-0.00043847,0.00008698,-0.00
 006158,0.00000926,-0.00000120,0.00000436,-0.00000482,0.00000091,-0.000
 00044,-0.00000604,0.00000121,0.00000738,-0.00002336,0.00000470,-0.0002
 5813,0.00022952,-0.00004466,0.00004690,-0.00004310,0.00000576,-0.00046
 453,0.00096865,-0.00019232,0.00000475,0.00000845,-0.00000084,-0.000025
 58,-0.00000105,0.00000030,-0.00000410,0.00000689,-0.00000138,-0.000044
 37,-0.00001573,0.00000311,0.00002066,0.00000121,-0.00000026,0.06726218
 ,0.00001630,-0.00009641,0.00001870,0.00011251,-0.00000110,-0.00000385,
 -0.00001581,0.00013098,-0.00001708,0.00000874,0.00015911,-0.00007254,-
 0.00086179,-0.00075598,0.00018093,0.00366127,0.00028648,0.00091709,0.0
 0022723,0.00058336,-0.00020880,-0.00174364,0.00164811,0.00100121,-0.00
 034873,-0.00761803,0.00248365,0.00235461,0.00040623,-0.00106660,-0.000
 35240,0.00015000,-0.00003013,0.00010569,0.00014899,-0.00005902,-0.0000
 2057,0.00001474,0.00000384,-0.00004652,0.00002520,-0.00000513,0.000041
 26,-0.00002299,0.00000477,-0.00020518,0.00001836,0.00003485,0.00043321
 ,-0.00050086,0.00014187,-0.04567829,-0.31272903,0.05541180,-0.00524843
 ,-0.01544117,0.00394243,-0.00209418,0.00067642,-0.00075969,0.00040635,
 0.00018234,-0.00007364,-0.00008760,-0.00007182,0.00005354,0.00001499,-
 0.00000032,-0.00000343,0.00001067,0.00000261,-0.00000063,-0.00002309,0
 .00000405,0.00000264,0.00021846,-0.00019026,0.00008870,-0.00002295,-0.
 00018580,-0.00017934,-0.00058656,0.00057505,-0.00007343,-0.00007138,-0
 .00000011,0.00006826,-0.00002103,0.00000589,0.00000125,-0.00000672,0.0
 0000223,-0.00000108,-0.00002158,-0.00001307,-0.00000943,0.00001866,0.0
 0001211,0.00000045,0.04883792,0.33211590,-0.00000339,0.00001882,-0.000
 00659,-0.00002256,-0.00000373,-0.00001806,0.00000346,-0.00001702,0.000
 04889,-0.00000284,-0.00007277,-0.00018839,0.00017171,0.00017597,0.0001
 0072,-0.00071143,0.00092188,0.00472894,-0.00004483,-0.00020889,-0.0004
 1428,0.00037832,0.00099663,0.00642411,0.00008626,0.00255566,0.00426560
 ,-0.00048656,-0.00105503,-0.00467654,0.00007027,-0.00003208,0.00000135
 ,-0.00002194,-0.00005817,-0.00013264,0.00000416,0.00000343,0.00003294,
 0.00000933,-0.00000516,0.00000002,-0.00000824,0.00000511,0.00000033,0.
 00004264,0.00003414,0.00018281,-0.00008691,0.00014661,0.00018379,0.009
 22308,0.05540991,-0.04777606,0.00104321,0.00386969,0.00339783,0.000408
 17,-0.00076873,-0.00299019,-0.00008223,-0.00007149,-0.00016565,0.00001
 820,0.00005329,0.00018365,-0.00000306,-0.00000338,-0.00001656,-0.00000
 214,-0.00000059,-0.00000027,0.00000465,0.00000264,0.00001639,-0.000042
 45,0.00008867,0.00023771,0.00000172,-0.00017929,-0.00104558,0.00011918
 ,-0.00007739,0.00021615,0.00001515,0.00006806,0.00032613,0.00000431,0.
 00000120,0.00001162,0.00000135,-0.00000112,-0.00000304,0.00000428,-0.0
 0000945,-0.00005856,-0.00000375,0.00000049,0.00001449,-0.00989065,-0.0
 6173346,0.03690910,0.00015244,-0.00044518,0.00008862,0.00018644,0.0001
 8256,-0.00003763,0.00046919,0.00103436,-0.00020807,-0.00353080,0.00183
 021,-0.00034192,-0.00073509,0.00024610,-0.00004878,-0.00495868,0.00013
 964,-0.00000115,0.00024130,-0.00145033,0.00029026,0.00018468,-0.000124
 66,0.00002396,0.00017205,0.00043469,-0.00008794,-0.00001469,-0.0000212
 4,0.00000496,0.00001462,-0.00001606,0.00000317,-0.00005092,-0.00005487
 ,0.00001114,0.00001432,0.00002414,-0.00000487,-0.00002162,-0.00002440,
 0.00000492,-0.00001793,0.00004260,-0.00000849,0.00000482,-0.00002608,0
 .00000521,0.00001605,0.00008637,-0.00001721,0.00140268,-0.00171352,0.0
 0033033,-0.00148875,-0.02873726,0.00577053,-0.06698992,-0.04801081,0.0
 0969379,0.00763397,0.02301474,-0.00461743,0.00112301,0.00162244,-0.000
 33856,0.00001981,-0.00001855,0.00000438,-0.00002374,-0.00004777,0.0000
 0976,-0.00026315,0.00022013,-0.00004279,0.00004401,-0.00004018,0.00000
 507,-0.00039252,-0.00014938,0.00003157,-0.00002740,0.00002984,-0.00000
 590,0.00000152,0.00000364,-0.00000082,-0.00000607,0.00000086,-0.000000
 15,-0.00000174,0.00000202,-0.00000040,0.00000031,-0.00000127,0.0000002
 6,-0.00000141,0.00002899,-0.00000580,-0.00038328,0.00096691,-0.0001921
 9,0.06759940,0.00028101,0.00006133,-0.00002519,0.00005264,0.00016593,-
 0.00008012,-0.00084359,-0.00075619,0.00017701,0.00365635,0.00034147,0.
 00115459,0.00024335,0.00055250,-0.00021797,-0.00168874,0.00165417,0.00
 078974,0.00043946,-0.00052224,0.00013374,0.00000112,0.00022893,-0.0000
 8858,-0.00037439,0.00011157,-0.00005541,0.00004680,-0.00008505,0.00006
 929,-0.00005735,-0.00004449,0.00000820,-0.00002665,0.00002352,-0.00000
 302,-0.00000955,-0.00002181,0.00000433,-0.00003057,0.00000892,-0.00000
 366,0.00001269,0.00002169,-0.00000463,-0.00001677,-0.00002234,0.000003
 96,0.00006143,0.00006098,-0.00000182,0.00191198,0.00050548,-0.00083838
 ,-0.00018736,-0.00694560,0.00224949,-0.04787543,-0.31174093,0.05525010
 ,-0.00542449,-0.01588224,0.00411320,-0.00222397,0.00065900,-0.00097130
 ,0.00005569,-0.00001473,0.00005934,0.00004373,0.00004188,0.00000144,0.
 00022867,-0.00018298,0.00008612,-0.00004027,-0.00019731,-0.00018620,-0
 .00014281,-0.00004849,0.00006138,-0.00000526,0.00002088,-0.00000343,-0
 .00001418,0.00000059,-0.00000731,-0.00000750,0.00000418,-0.00000056,-0
 .00000516,-0.00000052,0.00000032,-0.00000188,-0.00000547,0.00000195,0.
 00000330,0.00001338,-0.00000265,-0.00065847,0.00045639,-0.00005045,0.0
 5161963,0.33106567,-0.00005683,-0.00002334,-0.00005603,-0.00001161,-0.
 00008045,-0.00021725,0.00016807,0.00017223,0.00008192,-0.00070769,0.00
 115924,0.00592211,-0.00004823,-0.00021798,-0.00048889,0.00036506,0.000
 78508,0.00541745,-0.00008825,0.00013855,0.00012354,-0.00000124,-0.0000
 8826,-0.00019561,0.00007412,-0.00005747,-0.00015851,-0.00000867,0.0000
 6947,0.00024762,0.00001144,0.00000809,-0.00000594,0.00000549,-0.000002
 95,0.00000867,0.00000188,0.00000424,-0.00000118,0.00000615,-0.00000367
 ,-0.00000901,-0.00000250,-0.00000470,-0.00000031,0.00000334,0.00000398
 ,-0.00000358,-0.00001221,-0.00000188,0.00005310,-0.00039583,-0.0008291
 5,-0.00348892,0.00005222,0.00232217,0.00381785,0.00966668,0.05525045,-
 0.04759239,0.00107872,0.00404080,0.00377275,0.00043185,-0.00098109,-0.
 00402329,-0.00001049,0.00005953,0.00027034,-0.00000857,0.00000167,0.00
 004929,-0.00004449,0.00008614,0.00023274,0.00000508,-0.00018620,-0.001
 09018,0.00003026,0.00006140,0.00024380,0.00000113,-0.00000352,0.000004
 40,0.00000275,-0.00000736,-0.00003463,0.00000152,-0.00000058,0.0000013
 9,0.00000104,0.00000030,0.00000095,0.00000039,0.00000194,0.00000383,-0
 .00000066,-0.00000272,0.00000072,0.00013336,-0.00005459,0.00020672,-0.
 01044909,-0.06156356,0.03670987,0.00836054,0.02456812,-0.00492926,-0.0
 0328055,0.00217273,-0.00040519,-0.00072641,0.00029920,-0.00005949,-0.0
 0505997,0.00011378,0.00000112,0.00025279,-0.00150411,0.00030098,0.0001
 9454,-0.00007348,0.00001373,-0.00003121,0.00007951,-0.00001575,-0.0000
 3846,-0.00001873,0.00000382,0.00002496,-0.00000752,0.00000144,0.000006
 58,-0.00000153,0.00000025,0.00000711,-0.00001190,0.00000236,-0.0000161
 2,-0.00001497,0.00000304,0.00000575,0.00000459,-0.00000094,-0.00000845
 ,-0.00000696,0.00000141,-0.00000396,0.00000930,-0.00000186,0.00000040,
 0.00000052,-0.00000011,0.00001032,0.00000694,-0.00000142,-0.00003217,-
 0.00002782,0.00000601,0.00016508,0.00045165,-0.00009134,0.00144786,-0.
 00163852,0.00031791,-0.00171416,-0.02846665,0.00571537,-0.06732372,-0.
 04930301,0.00995115,0.00115650,-0.00049211,0.00008149,0.00022934,0.001
 11786,-0.00022399,0.00010373,-0.00003277,0.00000328,-0.00040890,-0.000
 15068,0.00003186,0.00002169,0.00001717,-0.00000345,-0.00000330,0.00000
 401,-0.00000079,-0.00000028,0.00000141,-0.00000027,-0.00000164,0.00000
 018,-0.00000003,0.00000029,0.00000029,-0.00000006,-0.00000005,-0.00000
 022,0.00000005,0.00000082,0.00000053,-0.00000010,-0.00002775,0.0000216
 7,-0.00000426,-0.00037290,0.00097655,-0.00019417,0.06706172,-0.0064760
 1,-0.01510805,0.00405119,0.00386011,0.00015503,0.00166155,0.00011856,0
 .00067524,-0.00024670,-0.00162029,0.00147884,0.00057571,0.00045894,-0.
 00049502,0.00012661,0.00000889,0.00018544,-0.00007600,0.00006542,0.000
 08519,-0.00000991,-0.00006644,0.00006073,-0.00001460,-0.00006981,-0.00
 004016,0.00000832,0.00002144,-0.00004423,0.00000534,-0.00002691,-0.000
 01118,0.00000161,-0.00001095,0.00002032,-0.00000417,-0.00000291,-0.000
 02088,0.00000405,-0.00001729,0.00000616,-0.00000144,0.00000765,0.00000
 594,-0.00000150,-0.00002195,-0.00001034,0.00000179,0.00004252,0.000020
 79,-0.00000448,0.00008032,-0.00011227,0.00005045,-0.00039433,0.0002236
 4,-0.00007936,0.00181293,0.00053139,-0.00062909,0.00020851,-0.00670251
 ,0.00207879,-0.04884181,-0.31376882,0.05547692,0.00012571,0.00074366,-
 0.00126084,-0.00032568,-0.00076301,0.00019223,-0.00004794,-0.00014734,
 -0.00020765,-0.00014126,-0.00004389,0.00005945,0.00001860,-0.00000912,
 0.00000485,-0.00000004,0.00000999,-0.00000127,-0.00000846,0.00000139,0
 .00000078,-0.00000444,0.00000386,-0.00000060,-0.00000464,-0.00000140,0
 .00000044,-0.00000157,-0.00000476,0.00000122,0.00000430,0.00000360,-0.
 00000036,-0.00000778,0.00002238,-0.00000400,-0.00064833,0.00047192,-0.
 00005582,0.05190496,0.33257746,0.00128863,0.00397216,0.00423718,-0.000
 74316,0.00166585,0.00816799,-0.00002331,-0.00024716,-0.00050537,0.0003
 4844,0.00057130,0.00421731,-0.00009220,0.00013161,0.00011681,-0.000002
 77,-0.00007579,-0.00017872,-0.00001293,-0.00000995,0.00003855,0.000013
 37,-0.00001472,-0.00001011,0.00001392,0.00000816,-0.00000117,-0.000004
 36,0.00000540,-0.00001837,0.00000536,0.00000157,-0.00000384,0.00000223
 ,-0.00000416,0.00000021,0.00000057,0.00000403,-0.00000152,0.00000348,-
 0.00000147,-0.00000098,-0.00000153,-0.00000150,-0.00000114,0.00000439,
 0.00000173,-0.00000204,-0.00000854,-0.00000439,-0.00000013,-0.00001565
 ,0.00005072,0.00013049,0.00007811,-0.00008152,-0.00016147,-0.00037339,
 -0.00062030,-0.00246124,-0.00002803,0.00215179,0.00324801,0.00985878,0
 .05547809,-0.04854620,-0.00004225,-0.00125926,-0.00529741,0.00006514,0
 .00018855,0.00015465,0.00000632,-0.00020769,-0.00114310,0.00002997,0.0
 0005947,0.00023913,-0.00000374,0.00000485,0.00001434,0.00000002,-0.000
 00128,0.00000390,0.00000171,0.00000075,0.00000502,0.00000090,-0.000000
 61,0.00000094,0.00000093,0.00000043,0.00000066,0.00000032,0.00000122,0
 .00000106,-0.00000086,-0.00000035,0.00000192,0.00000163,-0.00000408,0.
 00000312,0.00013127,-0.00005996,0.00019667,-0.01050279,-0.06170349,0.0
 3755485\\-0.00005017,0.00002576,-0.00000503,-0.00005922,-0.00000568,0.
 00000129,0.00001183,-0.00005919,0.00001183,0.00006008,0.00023348,-0.00
 004692,-0.00001760,-0.00017473,0.00003504,-0.00002529,0.00026735,-0.00
 005348,-0.00001850,-0.00004646,0.00000935,0.00001194,0.00005085,-0.000
 01021,-0.00011383,-0.00018623,0.00003759,0.00007798,0.00003188,-0.0000
 0658,-0.00006346,0.00000253,-0.00000034,0.00008953,-0.00001365,0.00000
 251,-0.00005633,0.00003788,-0.00000744,0.00002177,0.00001937,-0.000003
 94,0.00004554,0.00003686,-0.00000750,-0.00002379,-0.00002137,0.0000043
 4,0.00006722,0.00000504,-0.00000118,0.00005318,0.00015377,-0.00003093,
 -0.00009123,-0.00025472,0.00005125,0.00004339,0.00016755,-0.00003367,-
 0.00001516,-0.00023853,0.00004781,0.00002788,0.00004861,-0.00000981,0.
 00002297,-0.00001472,0.00000289,0.00002696,0.00000404,-0.00000088,0.00
 001774,0.00001053,-0.00000215,0.00000731,0.00003176,-0.00000638,-0.000
 02576,0.00001708,-0.00000336,-0.00001930,-0.00000580,0.00000121,0.0000
 1666,0.00000918,-0.00000188,-0.00001203,-0.00002864,0.00000577,-0.0000
 2093,-0.00000404,0.00000086,0.00000080,-0.00001613,0.00000323,0.000007
 67,-0.00000325,0.00000063,-0.00000408,-0.00003259,0.00000654,-0.000005
 69,-0.00003153,0.00000633,0.00001191,-0.00001625,0.00000322\\\@
 The archive entry for this job was punched.


 THESE ARE THE TIMES THAT TRY MENS SOULS.
 THE SUMMER SOLDIER AND THE SUNSHINE PATRIOT WILL IN THIS CRISIS,
 SHRINK FROM THE SERVICE OF HIS COUNTRY.  BUT HE THAT STANDS NOW,
 DESERVES THE LOVE AND THANKS OF MAN AND WOMAN.
 TYRANNY, LIKE HELL, IS NOT EASILY CONQUERED,
 YET WE HAVE THIS CONSOLATION WITH US,
 THAT THE HARDER THE CONFLICT, THE MORE GLORIOUS THE TRIUMPH.
 WHAT WE OBTAIN TOO CHEAP, WE ESTEEM TOO LIGHTLY, 
 'TIS DEARNESS ONLY THAT GIVES EVERYTHING ITS VALUE.

                                              -- TOM PAINE
 Job cpu time:       0 days  0 hours 51 minutes  1.2 seconds.
 Elapsed time:       0 days  0 hours  6 minutes 22.7 seconds.
 File lengths (MBytes):  RWF=    488 Int=      0 D2E=      0 Chk=     11 Scr=      1
 Normal termination of Gaussian 16 at Tue Oct  8 22:05:50 2024.
