 Entering Gaussian System, Link 0=g16
 Initial command:
 /opt/g16/l1.exe "/tmp/Gau-1217313.inp" -scrdir="/tmp/"
 Entering Link 1 = /opt/g16/l1.exe PID=   1217315.
  
 Copyright (c) 1988-2019, Gaussian, Inc.  All Rights Reserved.
  
 This is part of the Gaussian(R) 16 program.  It is based on
 the Gaussian(R) 09 system (copyright 2009, Gaussian, Inc.),
 the Gaussian(R) 03 system (copyright 2003, Gaussian, Inc.),
 the Gaussian(R) 98 system (copyright 1998, Gaussian, Inc.),
 the Gaussian(R) 94 system (copyright 1995, Gaussian, Inc.),
 the Gaussian 92(TM) system (copyright 1992, Gaussian, Inc.),
 the Gaussian 90(TM) system (copyright 1990, Gaussian, Inc.),
 the Gaussian 88(TM) system (copyright 1988, Gaussian, Inc.),
 the Gaussian 86(TM) system (copyright 1986, Carnegie Mellon
 University), and the Gaussian 82(TM) system (copyright 1983,
 Carnegie Mellon University). Gaussian is a federally registered
 trademark of Gaussian, Inc.
  
 This software contains proprietary and confidential information,
 including trade secrets, belonging to Gaussian, Inc.
  
 This software is provided under written license and may be
 used, copied, transmitted, or stored only in accord with that
 written license.
  
 The following legend is applicable only to US Government
 contracts under FAR:
  
                    RESTRICTED RIGHTS LEGEND
  
 Use, reproduction and disclosure by the US Government is
 subject to restrictions as set forth in subparagraphs (a)
 and (c) of the Commercial Computer Software - Restricted
 Rights clause in FAR 52.227-19.
  
 Gaussian, Inc.
 340 Quinnipiac St., Bldg. 40, Wallingford CT 06492
  
  
 ---------------------------------------------------------------
 Warning -- This program may not be used in any manner that
 competes with the business of Gaussian, Inc. or will provide
 assistance to any competitor of Gaussian, Inc.  The licensee
 of this program is prohibited from giving any competitor of
 Gaussian, Inc. access to this program.  By using this program,
 the user acknowledges that Gaussian, Inc. is engaged in the
 business of creating and licensing software in the field of
 computational chemistry and represents and warrants to the
 licensee that it is not a competitor of Gaussian, Inc. and that
 it will not use this program in any manner prohibited above.
 ---------------------------------------------------------------
  

 Cite this work as:
 Gaussian 16, Revision C.01,
 M. J. Frisch, G. W. Trucks, H. B. Schlegel, G. E. Scuseria, 
 M. A. Robb, J. R. Cheeseman, G. Scalmani, V. Barone, 
 G. A. Petersson, H. Nakatsuji, X. Li, M. Caricato, A. V. Marenich, 
 J. Bloino, B. G. Janesko, R. Gomperts, B. Mennucci, H. P. Hratchian, 
 J. V. Ortiz, A. F. Izmaylov, J. L. Sonnenberg, D. Williams-Young, 
 F. Ding, F. Lipparini, F. Egidi, J. Goings, B. Peng, A. Petrone, 
 T. Henderson, D. Ranasinghe, V. G. Zakrzewski, J. Gao, N. Rega, 
 G. Zheng, W. Liang, M. Hada, M. Ehara, K. Toyota, R. Fukuda, 
 J. Hasegawa, M. Ishida, T. Nakajima, Y. Honda, O. Kitao, H. Nakai, 
 T. Vreven, K. Throssell, J. A. Montgomery, Jr., J. E. Peralta, 
 F. Ogliaro, M. J. Bearpark, J. J. Heyd, E. N. Brothers, K. N. Kudin, 
 V. N. Staroverov, T. A. Keith, R. Kobayashi, J. Normand, 
 K. Raghavachari, A. P. Rendell, J. C. Burant, S. S. Iyengar, 
 J. Tomasi, M. Cossi, J. M. Millam, M. Klene, C. Adamo, R. Cammi, 
 J. W. Ochterski, R. L. Martin, K. Morokuma, O. Farkas, 
 J. B. Foresman, and D. J. Fox, Gaussian, Inc., Wallingford CT, 2019.
 
 ******************************************
 Gaussian 16:  ES64L-G16RevC.01  3-Jul-2019
                 8-Oct-2024 
 ******************************************
 %nprocshared=8
 Will use up to    8 processors via shared memory.
 %mem=10400MB
 ----------------------------------------------------------------------
 #N opt freq B3LYP/def2SVPP symm=veryloose em=gd3bj scale=0.961 press=0
 .987
 ----------------------------------------------------------------------
 1/18=20,19=15,26=3,38=1,113=-987000,114=961000/1,3;
 2/9=110,12=2,17=2,18=2,40=1/2;
 3/5=43,7=202,11=2,25=1,30=1,71=1,74=-5,124=41/1,2,3;
 4//1;
 5/5=2,38=5/2;
 6/7=2,8=2,9=2,10=2,28=1/1;
 7//1,2,3,16;
 1/18=20,19=15,26=3/3(2);
 2/9=110/2;
 99//99;
 2/9=110/2;
 3/5=43,7=202,11=2,25=1,30=1,71=1,74=-5,124=41/1,2,3;
 4/5=5,16=3,69=1/1;
 5/5=2,38=5/2;
 7//1,2,3,16;
 1/18=20,19=15,26=3/3(-5);
 2/9=110/2;
 6/7=2,8=2,9=2,10=2,19=2,28=1/1;
 99/9=1/99;
 ------------------------------------------
 c1ccc2cc3c(ccc4c3ccc3c5ccccc5ccc34)cc2c1_2
 ------------------------------------------
 Symbolic Z-matrix:
 Charge =  0 Multiplicity = 1
 C                     6.8644    0.9481    0.3251 
 C                     6.2579    1.8598    1.1829 
 C                     4.8674    1.8842    1.3021 
 C                     4.0647    0.9965    0.5644 
 C                     2.6597    1.0045    0.6698 
 C                     1.8164    0.1221   -0.0604 
 C                     2.47     -0.7872   -0.9194 
 C                     1.7166   -1.6836   -1.6684 
 C                     0.3248   -1.6948   -1.5811 
 C                    -0.3983   -0.816    -0.7444 
 C                     0.3703    0.1017    0.0227 
 C                    -0.3444    0.977     0.8556 
 C                    -1.7383    0.964     0.9416 
 C                    -2.5327    0.0746    0.2017 
 C                    -3.9773    0.0686    0.2975 
 C                    -4.7393    0.936     1.1266 
 C                    -6.1365    0.89      1.1833 
 C                    -6.8284   -0.0279    0.4107 
 C                    -6.1208   -0.8956   -0.4149 
 C                    -4.7165   -0.8548   -0.4768 
 C                    -4.0452   -1.7381   -1.3138 
 C                    -2.6529   -1.7231   -1.3978 
 C                    -1.8482   -0.8298   -0.6552 
 C                     3.8721   -0.8036   -1.0323 
 C                     4.6792    0.0768   -0.3013 
 C                     6.0801    0.0612   -0.4134 
 H                     7.9467    0.926     0.2295 
 H                     6.865     2.5524    1.7599 
 H                     4.4119    2.6044    1.9781 
 H                     2.2227    1.7304    1.3497 
 H                     2.2002   -2.3931   -2.337 
 H                    -0.1822   -2.4278   -2.2012 
 H                     0.1658    1.709     1.4746 
 H                    -2.1838    1.6866    1.619 
 H                    -4.2535    1.6765    1.755 
 H                    -6.6759    1.5741    1.833 
 H                    -7.9132   -0.0709    0.4483 
 H                    -6.6779   -1.6113   -1.0161 
 H                    -4.595    -2.4568   -1.9182 
 H                    -2.2125   -2.4472   -2.0764 
 H                     4.346    -1.5177   -1.7042 
 H                     6.5706   -0.6451   -1.0794 
 

 GradGradGradGradGradGradGradGradGradGradGradGradGradGradGradGradGradGrad
 Berny optimization.
 Initialization pass.
                           ----------------------------
                           !    Initial Parameters    !
                           ! (Angstroms and Degrees)  !
 --------------------------                            --------------------------
 ! Name  Definition              Value          Derivative Info.                !
 --------------------------------------------------------------------------------
 ! R1    R(1,2)                  1.391          estimate D2E/DX2                !
 ! R2    R(1,26)                 1.3954         estimate D2E/DX2                !
 ! R3    R(1,27)                 1.0867         estimate D2E/DX2                !
 ! R4    R(2,3)                  1.3958         estimate D2E/DX2                !
 ! R5    R(2,28)                 1.0868         estimate D2E/DX2                !
 ! R6    R(3,4)                  1.4059         estimate D2E/DX2                !
 ! R7    R(3,29)                 1.0877         estimate D2E/DX2                !
 ! R8    R(4,5)                  1.409          estimate D2E/DX2                !
 ! R9    R(4,25)                 1.4046         estimate D2E/DX2                !
 ! R10   R(5,6)                  1.4223         estimate D2E/DX2                !
 ! R11   R(5,30)                 1.0864         estimate D2E/DX2                !
 ! R12   R(6,7)                  1.4113         estimate D2E/DX2                !
 ! R13   R(6,11)                 1.4486         estimate D2E/DX2                !
 ! R14   R(7,8)                  1.39           estimate D2E/DX2                !
 ! R15   R(7,24)                 1.4067         estimate D2E/DX2                !
 ! R16   R(8,9)                  1.3946         estimate D2E/DX2                !
 ! R17   R(8,31)                 1.0882         estimate D2E/DX2                !
 ! R18   R(9,10)                 1.4125         estimate D2E/DX2                !
 ! R19   R(9,32)                 1.0858         estimate D2E/DX2                !
 ! R20   R(10,11)                1.4217         estimate D2E/DX2                !
 ! R21   R(10,23)                1.4527         estimate D2E/DX2                !
 ! R22   R(11,12)                1.4038         estimate D2E/DX2                !
 ! R23   R(12,13)                1.3966         estimate D2E/DX2                !
 ! R24   R(12,33)                1.086          estimate D2E/DX2                !
 ! R25   R(13,14)                1.4034         estimate D2E/DX2                !
 ! R26   R(13,34)                1.086          estimate D2E/DX2                !
 ! R27   R(14,15)                1.4478         estimate D2E/DX2                !
 ! R28   R(14,23)                1.4215         estimate D2E/DX2                !
 ! R29   R(15,16)                1.4214         estimate D2E/DX2                !
 ! R30   R(15,20)                1.4137         estimate D2E/DX2                !
 ! R31   R(16,17)                1.3991         estimate D2E/DX2                !
 ! R32   R(16,35)                1.0859         estimate D2E/DX2                !
 ! R33   R(17,18)                1.385          estimate D2E/DX2                !
 ! R34   R(17,36)                1.0868         estimate D2E/DX2                !
 ! R35   R(18,19)                1.3911         estimate D2E/DX2                !
 ! R36   R(18,37)                1.0863         estimate D2E/DX2                !
 ! R37   R(19,20)                1.4063         estimate D2E/DX2                !
 ! R38   R(19,38)                1.0881         estimate D2E/DX2                !
 ! R39   R(20,21)                1.3898         estimate D2E/DX2                !
 ! R40   R(21,22)                1.3949         estimate D2E/DX2                !
 ! R41   R(21,39)                1.0882         estimate D2E/DX2                !
 ! R42   R(22,23)                1.4131         estimate D2E/DX2                !
 ! R43   R(22,40)                1.0857         estimate D2E/DX2                !
 ! R44   R(24,25)                1.4003         estimate D2E/DX2                !
 ! R45   R(24,41)                1.089          estimate D2E/DX2                !
 ! R46   R(25,26)                1.4055         estimate D2E/DX2                !
 ! R47   R(26,42)                1.0877         estimate D2E/DX2                !
 ! A1    A(2,1,26)             119.8606         estimate D2E/DX2                !
 ! A2    A(2,1,27)             120.1203         estimate D2E/DX2                !
 ! A3    A(26,1,27)            120.0191         estimate D2E/DX2                !
 ! A4    A(1,2,3)              119.8996         estimate D2E/DX2                !
 ! A5    A(1,2,28)             120.1009         estimate D2E/DX2                !
 ! A6    A(3,2,28)             119.9996         estimate D2E/DX2                !
 ! A7    A(2,3,4)              120.8593         estimate D2E/DX2                !
 ! A8    A(2,3,29)             118.8042         estimate D2E/DX2                !
 ! A9    A(4,3,29)             120.3365         estimate D2E/DX2                !
 ! A10   A(3,4,5)              121.7697         estimate D2E/DX2                !
 ! A11   A(3,4,25)             119.1469         estimate D2E/DX2                !
 ! A12   A(5,4,25)             119.0834         estimate D2E/DX2                !
 ! A13   A(4,5,6)              123.3196         estimate D2E/DX2                !
 ! A14   A(4,5,30)             116.8555         estimate D2E/DX2                !
 ! A15   A(6,5,30)             119.8249         estimate D2E/DX2                !
 ! A16   A(5,6,7)              115.9508         estimate D2E/DX2                !
 ! A17   A(5,6,11)             124.831          estimate D2E/DX2                !
 ! A18   A(7,6,11)             119.2182         estimate D2E/DX2                !
 ! A19   A(6,7,8)              119.501          estimate D2E/DX2                !
 ! A20   A(6,7,24)             121.194          estimate D2E/DX2                !
 ! A21   A(8,7,24)             119.305          estimate D2E/DX2                !
 ! A22   A(7,8,9)              120.8222         estimate D2E/DX2                !
 ! A23   A(7,8,31)             120.7063         estimate D2E/DX2                !
 ! A24   A(9,8,31)             118.4715         estimate D2E/DX2                !
 ! A25   A(8,9,10)             122.8869         estimate D2E/DX2                !
 ! A26   A(8,9,32)             115.8296         estimate D2E/DX2                !
 ! A27   A(10,9,32)            121.2835         estimate D2E/DX2                !
 ! A28   A(9,10,11)            116.387          estimate D2E/DX2                !
 ! A29   A(9,10,23)            122.7784         estimate D2E/DX2                !
 ! A30   A(11,10,23)           120.8345         estimate D2E/DX2                !
 ! A31   A(6,11,10)            121.1846         estimate D2E/DX2                !
 ! A32   A(6,11,12)            122.241          estimate D2E/DX2                !
 ! A33   A(10,11,12)           116.5743         estimate D2E/DX2                !
 ! A34   A(11,12,13)           122.606          estimate D2E/DX2                !
 ! A35   A(11,12,33)           121.2849         estimate D2E/DX2                !
 ! A36   A(13,12,33)           116.1091         estimate D2E/DX2                !
 ! A37   A(12,13,14)           122.5738         estimate D2E/DX2                !
 ! A38   A(12,13,34)           116.2075         estimate D2E/DX2                !
 ! A39   A(14,13,34)           121.2187         estimate D2E/DX2                !
 ! A40   A(13,14,15)           122.1776         estimate D2E/DX2                !
 ! A41   A(13,14,23)           116.6434         estimate D2E/DX2                !
 ! A42   A(15,14,23)           121.179          estimate D2E/DX2                !
 ! A43   A(14,15,16)           124.818          estimate D2E/DX2                !
 ! A44   A(14,15,20)           119.2216         estimate D2E/DX2                !
 ! A45   A(16,15,20)           115.9604         estimate D2E/DX2                !
 ! A46   A(15,16,17)           122.6107         estimate D2E/DX2                !
 ! A47   A(15,16,35)           120.9199         estimate D2E/DX2                !
 ! A48   A(17,16,35)           116.4694         estimate D2E/DX2                !
 ! A49   A(16,17,18)           119.8728         estimate D2E/DX2                !
 ! A50   A(16,17,36)           119.9465         estimate D2E/DX2                !
 ! A51   A(18,17,36)           120.1808         estimate D2E/DX2                !
 ! A52   A(17,18,19)           119.3631         estimate D2E/DX2                !
 ! A53   A(17,18,37)           120.385          estimate D2E/DX2                !
 ! A54   A(19,18,37)           120.2519         estimate D2E/DX2                !
 ! A55   A(18,19,20)           121.0626         estimate D2E/DX2                !
 ! A56   A(18,19,38)           118.5377         estimate D2E/DX2                !
 ! A57   A(20,19,38)           120.3997         estimate D2E/DX2                !
 ! A58   A(15,20,19)           121.1304         estimate D2E/DX2                !
 ! A59   A(15,20,21)           119.5006         estimate D2E/DX2                !
 ! A60   A(19,20,21)           119.3689         estimate D2E/DX2                !
 ! A61   A(20,21,22)           120.7679         estimate D2E/DX2                !
 ! A62   A(20,21,39)           120.6797         estimate D2E/DX2                !
 ! A63   A(22,21,39)           118.5524         estimate D2E/DX2                !
 ! A64   A(21,22,23)           122.9239         estimate D2E/DX2                !
 ! A65   A(21,22,40)           115.8069         estimate D2E/DX2                !
 ! A66   A(23,22,40)           121.2692         estimate D2E/DX2                !
 ! A67   A(10,23,14)           120.7679         estimate D2E/DX2                !
 ! A68   A(10,23,22)           122.8251         estimate D2E/DX2                !
 ! A69   A(14,23,22)           116.407          estimate D2E/DX2                !
 ! A70   A(7,24,25)            121.6849         estimate D2E/DX2                !
 ! A71   A(7,24,41)            119.399          estimate D2E/DX2                !
 ! A72   A(25,24,41)           118.9161         estimate D2E/DX2                !
 ! A73   A(4,25,24)            118.7674         estimate D2E/DX2                !
 ! A74   A(4,25,26)            119.5049         estimate D2E/DX2                !
 ! A75   A(24,25,26)           121.7278         estimate D2E/DX2                !
 ! A76   A(1,26,25)            120.7287         estimate D2E/DX2                !
 ! A77   A(1,26,42)            118.9034         estimate D2E/DX2                !
 ! A78   A(25,26,42)           120.3679         estimate D2E/DX2                !
 ! D1    D(26,1,2,3)             0.0098         estimate D2E/DX2                !
 ! D2    D(26,1,2,28)         -179.9961         estimate D2E/DX2                !
 ! D3    D(27,1,2,3)           179.9982         estimate D2E/DX2                !
 ! D4    D(27,1,2,28)           -0.0077         estimate D2E/DX2                !
 ! D5    D(2,1,26,25)           -0.0114         estimate D2E/DX2                !
 ! D6    D(2,1,26,42)          179.9993         estimate D2E/DX2                !
 ! D7    D(27,1,26,25)        -179.9998         estimate D2E/DX2                !
 ! D8    D(27,1,26,42)           0.011          estimate D2E/DX2                !
 ! D9    D(1,2,3,4)             -0.0018         estimate D2E/DX2                !
 ! D10   D(1,2,3,29)           179.9986         estimate D2E/DX2                !
 ! D11   D(28,2,3,4)          -179.9959         estimate D2E/DX2                !
 ! D12   D(28,2,3,29)            0.0045         estimate D2E/DX2                !
 ! D13   D(2,3,4,5)           -179.9947         estimate D2E/DX2                !
 ! D14   D(2,3,4,25)            -0.0046         estimate D2E/DX2                !
 ! D15   D(29,3,4,5)             0.0049         estimate D2E/DX2                !
 ! D16   D(29,3,4,25)          179.9949         estimate D2E/DX2                !
 ! D17   D(3,4,5,6)            179.9972         estimate D2E/DX2                !
 ! D18   D(3,4,5,30)            -0.0089         estimate D2E/DX2                !
 ! D19   D(25,4,5,6)             0.0071         estimate D2E/DX2                !
 ! D20   D(25,4,5,30)         -179.999          estimate D2E/DX2                !
 ! D21   D(3,4,25,24)         -179.9952         estimate D2E/DX2                !
 ! D22   D(3,4,25,26)            0.0031         estimate D2E/DX2                !
 ! D23   D(5,4,25,24)           -0.0048         estimate D2E/DX2                !
 ! D24   D(5,4,25,26)          179.9934         estimate D2E/DX2                !
 ! D25   D(4,5,6,7)             -0.0024         estimate D2E/DX2                !
 ! D26   D(4,5,6,11)           179.9919         estimate D2E/DX2                !
 ! D27   D(30,5,6,7)          -179.9961         estimate D2E/DX2                !
 ! D28   D(30,5,6,11)           -0.0018         estimate D2E/DX2                !
 ! D29   D(5,6,7,8)            179.9996         estimate D2E/DX2                !
 ! D30   D(5,6,7,24)            -0.0044         estimate D2E/DX2                !
 ! D31   D(11,6,7,8)             0.0049         estimate D2E/DX2                !
 ! D32   D(11,6,7,24)         -179.999          estimate D2E/DX2                !
 ! D33   D(5,6,11,10)          179.9969         estimate D2E/DX2                !
 ! D34   D(5,6,11,12)            0.005          estimate D2E/DX2                !
 ! D35   D(7,6,11,10)           -0.009          estimate D2E/DX2                !
 ! D36   D(7,6,11,12)          179.9991         estimate D2E/DX2                !
 ! D37   D(6,7,8,9)              0.0029         estimate D2E/DX2                !
 ! D38   D(6,7,8,31)           179.9912         estimate D2E/DX2                !
 ! D39   D(24,7,8,9)          -179.9932         estimate D2E/DX2                !
 ! D40   D(24,7,8,31)           -0.0049         estimate D2E/DX2                !
 ! D41   D(6,7,24,25)            0.0066         estimate D2E/DX2                !
 ! D42   D(6,7,24,41)         -179.9972         estimate D2E/DX2                !
 ! D43   D(8,7,24,25)         -179.9974         estimate D2E/DX2                !
 ! D44   D(8,7,24,41)           -0.0012         estimate D2E/DX2                !
 ! D45   D(7,8,9,10)            -0.0072         estimate D2E/DX2                !
 ! D46   D(7,8,9,32)           179.9998         estimate D2E/DX2                !
 ! D47   D(31,8,9,10)         -179.9957         estimate D2E/DX2                !
 ! D48   D(31,8,9,32)            0.0113         estimate D2E/DX2                !
 ! D49   D(8,9,10,11)            0.0031         estimate D2E/DX2                !
 ! D50   D(8,9,10,23)         -179.9943         estimate D2E/DX2                !
 ! D51   D(32,9,10,11)         179.9958         estimate D2E/DX2                !
 ! D52   D(32,9,10,23)          -0.0017         estimate D2E/DX2                !
 ! D53   D(9,10,11,6)            0.0049         estimate D2E/DX2                !
 ! D54   D(9,10,11,12)         179.9972         estimate D2E/DX2                !
 ! D55   D(23,10,11,6)        -179.9976         estimate D2E/DX2                !
 ! D56   D(23,10,11,12)         -0.0053         estimate D2E/DX2                !
 ! D57   D(9,10,23,14)         179.9998         estimate D2E/DX2                !
 ! D58   D(9,10,23,22)           0.0025         estimate D2E/DX2                !
 ! D59   D(11,10,23,14)          0.0025         estimate D2E/DX2                !
 ! D60   D(11,10,23,22)       -179.9948         estimate D2E/DX2                !
 ! D61   D(6,11,12,13)         179.9978         estimate D2E/DX2                !
 ! D62   D(6,11,12,33)          -0.0046         estimate D2E/DX2                !
 ! D63   D(10,11,12,13)          0.0056         estimate D2E/DX2                !
 ! D64   D(10,11,12,33)       -179.9969         estimate D2E/DX2                !
 ! D65   D(11,12,13,14)         -0.0031         estimate D2E/DX2                !
 ! D66   D(11,12,13,34)       -179.9967         estimate D2E/DX2                !
 ! D67   D(33,12,13,14)        179.9993         estimate D2E/DX2                !
 ! D68   D(33,12,13,34)          0.0056         estimate D2E/DX2                !
 ! D69   D(12,13,14,15)       -179.9996         estimate D2E/DX2                !
 ! D70   D(12,13,14,23)         -0.0001         estimate D2E/DX2                !
 ! D71   D(34,13,14,15)         -0.0062         estimate D2E/DX2                !
 ! D72   D(34,13,14,23)        179.9933         estimate D2E/DX2                !
 ! D73   D(13,14,15,16)          0.0043         estimate D2E/DX2                !
 ! D74   D(13,14,15,20)        179.9958         estimate D2E/DX2                !
 ! D75   D(23,14,15,16)       -179.9952         estimate D2E/DX2                !
 ! D76   D(23,14,15,20)         -0.0037         estimate D2E/DX2                !
 ! D77   D(13,14,23,10)          0.0003         estimate D2E/DX2                !
 ! D78   D(13,14,23,22)        179.9977         estimate D2E/DX2                !
 ! D79   D(15,14,23,10)        179.9998         estimate D2E/DX2                !
 ! D80   D(15,14,23,22)         -0.0027         estimate D2E/DX2                !
 ! D81   D(14,15,16,17)        179.9997         estimate D2E/DX2                !
 ! D82   D(14,15,16,35)         -0.008          estimate D2E/DX2                !
 ! D83   D(20,15,16,17)          0.008          estimate D2E/DX2                !
 ! D84   D(20,15,16,35)       -179.9996         estimate D2E/DX2                !
 ! D85   D(14,15,20,19)        179.9981         estimate D2E/DX2                !
 ! D86   D(14,15,20,21)          0.0073         estimate D2E/DX2                !
 ! D87   D(16,15,20,19)         -0.0097         estimate D2E/DX2                !
 ! D88   D(16,15,20,21)        179.9995         estimate D2E/DX2                !
 ! D89   D(15,16,17,18)         -0.0052         estimate D2E/DX2                !
 ! D90   D(15,16,17,36)        179.9947         estimate D2E/DX2                !
 ! D91   D(35,16,17,18)       -179.9978         estimate D2E/DX2                !
 ! D92   D(35,16,17,36)          0.002          estimate D2E/DX2                !
 ! D93   D(16,17,18,19)          0.0037         estimate D2E/DX2                !
 ! D94   D(16,17,18,37)        179.9957         estimate D2E/DX2                !
 ! D95   D(36,17,18,19)       -179.9962         estimate D2E/DX2                !
 ! D96   D(36,17,18,37)         -0.0041         estimate D2E/DX2                !
 ! D97   D(17,18,19,20)         -0.0055         estimate D2E/DX2                !
 ! D98   D(17,18,19,38)       -179.9989         estimate D2E/DX2                !
 ! D99   D(37,18,19,20)       -179.9976         estimate D2E/DX2                !
 ! D100  D(37,18,19,38)          0.009          estimate D2E/DX2                !
 ! D101  D(18,19,20,15)          0.0089         estimate D2E/DX2                !
 ! D102  D(18,19,20,21)        179.9997         estimate D2E/DX2                !
 ! D103  D(38,19,20,15)       -179.9979         estimate D2E/DX2                !
 ! D104  D(38,19,20,21)         -0.0071         estimate D2E/DX2                !
 ! D105  D(15,20,21,22)         -0.0043         estimate D2E/DX2                !
 ! D106  D(15,20,21,39)        179.9983         estimate D2E/DX2                !
 ! D107  D(19,20,21,22)       -179.9953         estimate D2E/DX2                !
 ! D108  D(19,20,21,39)          0.0073         estimate D2E/DX2                !
 ! D109  D(20,21,22,23)         -0.0026         estimate D2E/DX2                !
 ! D110  D(20,21,22,40)       -179.9937         estimate D2E/DX2                !
 ! D111  D(39,21,22,23)        179.9949         estimate D2E/DX2                !
 ! D112  D(39,21,22,40)          0.0038         estimate D2E/DX2                !
 ! D113  D(21,22,23,10)       -179.9966         estimate D2E/DX2                !
 ! D114  D(21,22,23,14)          0.006          estimate D2E/DX2                !
 ! D115  D(40,22,23,10)         -0.006          estimate D2E/DX2                !
 ! D116  D(40,22,23,14)        179.9966         estimate D2E/DX2                !
 ! D117  D(7,24,25,4)           -0.0018         estimate D2E/DX2                !
 ! D118  D(7,24,25,26)         180.0            estimate D2E/DX2                !
 ! D119  D(41,24,25,4)        -179.998          estimate D2E/DX2                !
 ! D120  D(41,24,25,26)          0.0038         estimate D2E/DX2                !
 ! D121  D(4,25,26,1)            0.0049         estimate D2E/DX2                !
 ! D122  D(4,25,26,42)         179.994          estimate D2E/DX2                !
 ! D123  D(24,25,26,1)        -179.9969         estimate D2E/DX2                !
 ! D124  D(24,25,26,42)         -0.0077         estimate D2E/DX2                !
 --------------------------------------------------------------------------------
 Trust Radius=3.00D-01 FncErr=1.00D-07 GrdErr=1.00D-06 EigMax=2.50D+02 EigMin=1.00D-04
 Number of steps in this run=    252 maximum allowed number of steps=    252.
 GradGradGradGradGradGradGradGradGradGradGradGradGradGradGradGradGradGrad

                          Input orientation:                          
 ---------------------------------------------------------------------
 Center     Atomic      Atomic             Coordinates (Angstroms)
 Number     Number       Type             X           Y           Z
 ---------------------------------------------------------------------
      1          6           0        6.864400    0.948100    0.325100
      2          6           0        6.257900    1.859800    1.182900
      3          6           0        4.867400    1.884200    1.302100
      4          6           0        4.064700    0.996500    0.564400
      5          6           0        2.659700    1.004500    0.669800
      6          6           0        1.816400    0.122100   -0.060400
      7          6           0        2.470000   -0.787200   -0.919400
      8          6           0        1.716600   -1.683600   -1.668400
      9          6           0        0.324800   -1.694800   -1.581100
     10          6           0       -0.398300   -0.816000   -0.744400
     11          6           0        0.370300    0.101700    0.022700
     12          6           0       -0.344400    0.977000    0.855600
     13          6           0       -1.738300    0.964000    0.941600
     14          6           0       -2.532700    0.074600    0.201700
     15          6           0       -3.977300    0.068600    0.297500
     16          6           0       -4.739300    0.936000    1.126600
     17          6           0       -6.136500    0.890000    1.183300
     18          6           0       -6.828400   -0.027900    0.410700
     19          6           0       -6.120800   -0.895600   -0.414900
     20          6           0       -4.716500   -0.854800   -0.476800
     21          6           0       -4.045200   -1.738100   -1.313800
     22          6           0       -2.652900   -1.723100   -1.397800
     23          6           0       -1.848200   -0.829800   -0.655200
     24          6           0        3.872100   -0.803600   -1.032300
     25          6           0        4.679200    0.076800   -0.301300
     26          6           0        6.080100    0.061200   -0.413400
     27          1           0        7.946700    0.926000    0.229500
     28          1           0        6.865000    2.552400    1.759900
     29          1           0        4.411900    2.604400    1.978100
     30          1           0        2.222700    1.730400    1.349700
     31          1           0        2.200200   -2.393100   -2.337000
     32          1           0       -0.182200   -2.427800   -2.201200
     33          1           0        0.165800    1.709000    1.474600
     34          1           0       -2.183800    1.686600    1.619000
     35          1           0       -4.253500    1.676500    1.755000
     36          1           0       -6.675900    1.574100    1.833000
     37          1           0       -7.913200   -0.070900    0.448300
     38          1           0       -6.677900   -1.611300   -1.016100
     39          1           0       -4.595000   -2.456800   -1.918200
     40          1           0       -2.212500   -2.447200   -2.076400
     41          1           0        4.346000   -1.517700   -1.704200
     42          1           0        6.570600   -0.645100   -1.079400
 ---------------------------------------------------------------------
                    Distance matrix (angstroms):
                    1          2          3          4          5
     1  C    0.000000
     2  C    1.390992   0.000000
     3  C    2.412223   1.395813   0.000000
     4  C    2.810325   2.436792   1.405895   0.000000
     5  C    4.219183   3.733879   2.459190   1.408971   0.000000
     6  C    5.129638   4.928724   3.777566   2.491948   1.422314
     7  C    4.885775   5.076855   4.221252   2.815371   2.402443
     8  C    6.115532   6.427208   5.610758   4.204986   3.685444
     9  C    7.306496   7.448258   6.461989   5.082629   4.219541
    10  C    7.550013   7.428283   6.261536   4.991641   3.829562
    11  C    6.556003   6.253064   5.003806   3.839622   2.544629
    12  C    7.228351   6.669095   5.308977   4.418749   3.009966
    13  C    8.624777   8.049838   6.679222   5.815337   4.406577
    14  C    9.438417   9.023544   7.697208   6.671367   5.295739
    15  C   10.877350  10.428406   9.084841   8.099753   6.712994
    16  C   11.631354  11.036076   9.654976   8.822139   7.413404
    17  C   13.029324  12.432283  11.049360  10.220512   8.811920
    18  C   13.727807  13.244280  11.884547  10.942241   9.547619
    19  C   13.136295  12.781917  11.463678  10.405935   9.048985
    20  C   11.747797  11.426334  10.125105   9.034428   7.692855
    21  C   11.354340  11.195189   9.969876   8.762200   7.510806
    22  C   10.034077   9.944825   8.766812   7.508169   6.319691
    23  C    8.946022   8.736213   7.503073   6.307550   5.043951
    24  C    3.723553   4.206287   3.696527   2.413898   2.763383
    25  C    2.434469   2.806106   2.423428   1.404598   2.425292
    26  C    1.395385   2.411379   2.781530   2.427492   3.709754
    27  H    1.086739   2.152440   3.398633   3.897057   5.305883
    28  H    2.152308   1.086828   2.155569   3.419316   4.611817
    29  H    3.389763   2.143476   1.087724   2.168972   2.709526
    30  H    4.817383   4.040718   2.649596   2.132667   1.086353
    31  H    6.324963   6.851407   6.217097   4.835687   4.560227
    32  H    8.211788   8.444557   7.507657   6.116415   5.300917
    33  H    6.838974   6.100944   4.708024   4.066638   2.713588
    34  H    9.170032   8.454731   7.061083   6.374337   4.982543
    35  H   11.233115  10.528553   9.134499   8.430444   7.030048
    36  H   13.638378  12.953279  11.559662  10.830672   9.425015
    37  H   14.813204  14.320870  12.957435  12.025927  10.629758
    38  H   13.847138  13.572732  12.283588  11.167007   9.842532
    39  H   12.163206  12.084506  10.897322   9.647745   8.444466
    40  H    9.984257  10.045943   8.961042   7.631260   6.572228
    41  H    4.067010   4.837170   4.569751   3.398070   3.852399
    42  H    2.144114   3.389735   3.869081   3.417084   4.590863
                    6          7          8          9         10
     6  C    0.000000
     7  C    1.411347   0.000000
     8  C    2.419954   1.390016   0.000000
     9  C    2.799737   2.421460   1.394580   0.000000
    10  C    2.500557   2.873778   2.465625   1.412526   0.000000
    11  C    1.448629   2.467070   2.803505   2.408663   1.421746
    12  C    2.497792   3.766148   4.206791   3.677479   2.403696
    13  C    3.787967   4.923394   5.075256   4.205902   2.794029
    14  C    4.357250   5.198709   4.964382   3.804531   2.498787
    15  C    5.804990   6.616715   6.273393   5.014657   3.831098
    16  C    6.711826   7.689574   7.506862   6.316475   5.041272
    17  C    8.086104   9.016994   8.742242   7.488090   6.289150
    18  C    8.658926   9.423691   8.948800   7.610131   6.580391
    19  C    8.010027   8.606283   7.976029   6.598826   5.732531
    20  C    6.618648   7.200434   6.594816   5.228746   4.326658
    21  C    6.276122   6.596029   5.772959   4.378381   3.804519
    22  C    5.016776   5.229616   4.378049   2.983471   2.516542
    23  C    3.832648   4.326484   3.803071   2.515441   1.452707
    24  C    2.455079   1.406734   2.413546   3.698480   4.280112
    25  C    2.873275   2.451348   3.707421   4.872089   5.174402
    26  C    4.278721   3.742812   4.864102   6.129481   6.545892
    27  H    6.189578   5.852287   7.016137   8.260764   8.580330
    28  H    5.891368   6.135764   7.496863   8.483820   8.388871
    29  H    4.129639   4.865124   6.240877   6.917761   6.499936
    30  H    2.177175   3.398276   4.584808   4.891177   4.211775
    31  H    3.414153   2.159004   1.088249   2.139190   3.431592
    32  H    3.883222   3.371757   2.107878   1.085754   2.183315
    33  H    2.756621   4.155910   4.877824   4.576946   3.408489
    34  H    4.611902   5.849873   6.113785   5.288438   3.877715
    35  H    6.523459   7.643800   7.658462   6.592121   5.227057
    36  H    8.821135   9.838645   9.659527   8.446987   7.194709
    37  H    9.744801  10.497358   9.990709   8.638296   7.645353
    38  H    8.721879   9.185454   8.420116   7.025952   6.335590
    39  H    7.155990   7.327987   6.363689   4.989861   4.656428
    40  H    5.186289   5.100986   4.023354   2.692456   2.779633
    41  H    3.433642   2.160768   2.634872   4.026980   4.891010
    42  H    4.922334   4.106180   4.998672   6.353235   6.979040
                   11         12         13         14         15
    11  C    0.000000
    12  C    1.403805   0.000000
    13  C    2.456447   1.396611   0.000000
    14  C    2.908640   2.455721   1.403409   0.000000
    15  C    4.356402   3.786110   2.495942   1.447785   0.000000
    16  C    5.293644   4.403438   3.006827   2.542938   1.421420
    17  C    6.656339   5.802015   4.405458   3.823060   2.474163
    18  C    7.210314   6.576474   5.212949   4.302003   2.854978
    19  C    6.581830   6.203837   4.950203   3.767751   2.455970
    20  C    5.199993   4.924027   3.766904   2.468426   1.413727
    21  C    4.966663   5.076809   4.208320   2.805402   2.421789
    22  C    3.806239   4.206843   3.678287   2.409268   2.799690
    23  C    2.499797   2.794362   2.404073   1.421533   2.499565
    24  C    3.767651   4.951119   6.204618   6.581448   8.008881
    25  C    4.321136   5.233100   6.596683   7.229420   8.677190
    26  C    5.726573   6.612356   7.986141   8.634747  10.082496
    27  H    7.623915   8.314863   9.711218  10.513966  11.954979
    28  H    7.155761   7.434722   8.786888   9.842979  11.218883
    29  H    5.140197   5.150808   6.449047   7.601510   8.923753
    30  H    2.800889   2.720616   4.055051   5.164630   6.504514
    31  H    3.891111   5.293889   6.126265   5.910574   7.152766
    32  H    3.413116   4.578537   4.878826   4.190559   5.184428
    33  H    2.175603   1.085951   2.112986   3.401976   4.608878
    34  H    3.403455   2.114167   1.086044   2.174630   2.753349
    35  H    5.182701   4.071767   2.737792   2.817797   2.187678
    36  H    7.422539   6.434262   5.054375   4.698483   3.450613
    37  H    8.296222   7.651844   6.280426   5.388113   3.941257
    38  H    7.327387   7.093362   5.904609   4.637670   3.441054
    39  H    5.913309   6.128013   5.295381   3.892948   3.415922
    40  H    4.192132   4.879710   4.579244   3.413465   3.883191
    41  H    4.627184   5.897114   7.083629   7.313302   8.706347
    42  H    6.341613   7.361566   8.701233   9.221131  10.661305
                   16         17         18         19         20
    16  C    0.000000
    17  C    1.399106   0.000000
    18  C    2.409555   1.384983   0.000000
    19  C    2.763969   2.396426   1.391121   0.000000
    20  C    2.403825   2.795829   2.435476   1.406256   0.000000
    21  C    3.686209   4.185207   3.693899   2.413699   1.389760
    22  C    4.218587   5.062197   4.855839   3.698267   2.420874
    23  C    3.827704   4.972656   5.155733   4.279858   2.873951
    24  C    9.046727  10.389862  10.825186  10.012377   8.606698
    25  C    9.564793  10.947360  11.530081  10.844283   9.443403
    26  C   10.963407  12.348347  12.935086  12.238359  10.835573
    27  H   12.717684  14.115508  14.806969  14.199579  12.807293
    28  H   11.733439  13.120025  13.999553  13.610638  12.277743
    29  H    9.340935  10.716325  11.650326  11.354040  10.065798
    30  H    7.010727   8.402987   9.267996   8.923210   7.627048
    31  H    8.440148   9.626621   9.729319   8.670410   7.325807
    32  H    6.569366   7.610278   7.533493   6.387916   5.099780
    33  H    4.977815   6.361965   7.284747   7.062258   5.849606
    34  H    2.708586   4.055643   5.096254   5.128789   4.155197
    35  H    1.085923   2.119224   3.367823   3.848503   3.406285
    36  H    2.157914   1.086764   2.147696   3.385352   3.882522
    37  H    3.398173   2.149469   1.086303   2.153588   3.418947
    38  H    3.852022   3.374459   2.136718   1.088131   2.170306
    39  H    4.561000   4.816284   4.038738   2.650532   2.158425
    40  H    5.299997   6.095927   5.774531   4.521377   3.371124
    41  H    9.827347  11.136314  11.469940  10.564242   9.169234
    42  H   11.631000  12.997951  13.495723  12.711253  11.305120
                   21         22         23         24         25
    21  C    0.000000
    22  C    1.394912   0.000000
    23  C    2.466895   1.413146   0.000000
    24  C    7.977228   6.599598   5.732776   0.000000
    25  C    8.968510   7.629000   6.599554   1.400313   0.000000
    26  C   10.323270   8.967612   7.981873   2.450751   1.405465
    27  H   12.380827  11.046147   9.990275   4.602827   3.417520
    28  H   12.119756  10.901440   9.653592   5.293068   3.892925
    29  H   10.060639   8.946248   7.610312   4.579122   3.414070
    30  H    7.642728   6.576237   5.210228   3.849104   3.390367
    31  H    6.362467   4.988344   4.654235   2.650283   4.048447
    32  H    4.023175   2.691916   2.778359   4.521250   5.789288
    33  H    6.114752   5.289146   3.877854   5.131702   5.117487
    34  H    4.877981   4.576810   3.408355   7.064306   7.306147
    35  H    4.595695   4.905033   4.228010   8.941214   9.304866
    36  H    5.271964   6.123245   5.939408  11.185871  11.650555
    37  H    4.565739   5.814517   6.211108  11.900518  12.615556
    38  H    2.652511   4.044604   4.905812  10.580886  11.504101
    39  H    1.088168   2.140300   3.433250   8.672351   9.749066
    40  H    2.107883   1.085712   2.183691   6.388578   7.550966
    41  H    8.403168   7.008614   6.319946   1.089022   2.149786
    42  H   10.674493   9.291739   8.431504   2.703561   2.168864
                   26         27         28         29         30
    26  C    0.000000
    27  H    2.155318   0.000000
    28  H    3.397849   2.481406   0.000000
    29  H    3.869112   4.285958   2.463334   0.000000
    30  H    4.557882   5.887791   4.732325   2.439541   0.000000
    31  H    4.977695   7.115168   7.937438   6.963240   5.531321
    32  H    6.971926   9.123338   9.495037   7.993456   5.973530
    33  H    6.423296   7.918697   6.758106   4.368595   2.060800
    34  H    8.663984  10.253597   9.091218   6.668926   4.414939
    35  H   10.681500  12.318088  11.152949   8.717794   6.489094
    36  H   13.040350  14.724526  13.576391  11.136511   8.913085
    37  H   14.020429  15.892706  15.066426  12.704551  10.334102
    38  H   12.881268  14.895245  14.437892  12.236054   9.797176
    39  H   11.070795  13.166252  13.036568  11.041791   8.642502
    40  H    8.821840  10.950114  11.050530   9.265004   6.990100
    41  H    2.676975   4.761922   5.908559   5.527693   4.938103
    42  H    1.087661   2.464797   4.286292   4.956566   5.517949
                   31         32         33         34         35
    31  H    0.000000
    32  H    2.386520   0.000000
    33  H    5.957709   5.544883   0.000000
    34  H    7.177280   5.960589   2.354140   0.000000
    35  H    8.657734   7.005161   4.428306   2.074188   0.000000
    36  H   10.578881   8.628911   6.852409   4.498601   2.425818
    37  H   10.743899   8.505480   8.336161   6.106175   4.260783
    38  H    9.009808   6.653214   8.004012   6.165779   4.936227
    39  H    6.808391   4.421960   7.178454   5.957637   5.540143
    40  H    4.420719   2.034225   5.961536   5.544827   5.987504
    41  H    2.402336   4.645416   6.163638   7.996842   9.804100
    42  H    4.872110   7.073667   7.286025   9.452921  11.427370
                   36         37         38         39         40
    36  H    0.000000
    37  H    2.480792   0.000000
    38  H    4.273657   2.458305   0.000000
    39  H    5.886408   4.722636   2.422215   0.000000
    40  H    7.167719   6.672248   4.665058   2.387766   0.000000
    41  H   11.981373  12.530542  11.045751   8.992730   6.634488
    42  H   13.743241  14.575460  13.283836  11.342683   9.021331
                   41         42
    41  H    0.000000
    42  H    2.469950   0.000000
 Stoichiometry    C26H16
 Framework group  CS[SG(C26H16)]
 Deg. of freedom    81
 Full point group                 CS      NOp   2
 Largest Abelian subgroup         CS      NOp   2
 Largest concise Abelian subgroup C1      NOp   1
                         Standard orientation:                         
 ---------------------------------------------------------------------
 Center     Atomic      Atomic             Coordinates (Angstroms)
 Number     Number       Type             X           Y           Z
 ---------------------------------------------------------------------
      1          6           0        6.786165    1.477542    0.000000
      2          6           0        6.090530    2.682097    0.000000
      3          6           0        4.694719    2.679489    0.000000
      4          6           0        3.975847    1.471282    0.000000
      5          6           0        2.567099    1.446263    0.000000
      6          6           0        1.807037    0.244064    0.000000
      7          6           0        2.549645   -0.956117    0.000000
      8          6           0        1.881022   -2.174759    0.000000
      9          6           0        0.487352   -2.225138    0.000000
     10          6           0       -0.321975   -1.067459    0.000000
     11          6           0        0.359818    0.180146    0.000000
     12          6           0       -0.440747    1.333300   -0.000000
     13          6           0       -1.836362    1.280567   -0.000000
     14          6           0       -2.546744    0.070231   -0.000000
     15          6           0       -3.993840    0.025572   -0.000000
     16          6           0       -4.841041    1.166924   -0.000000
     17          6           0       -6.236781    1.069937   -0.000000
     18          6           0       -6.841696   -0.175958   -0.000000
     19          6           0       -6.048979   -1.319119   -0.000000
     20          6           0       -4.645618   -1.228945   -0.000000
     21          6           0       -3.887776   -2.393894   -0.000000
     22          6           0       -2.493965   -2.338459    0.000000
     23          6           0       -1.773631   -1.122687   -0.000000
     24          6           0        3.956314   -0.942537    0.000000
     25          6           0        4.680287    0.256103    0.000000
     26          6           0        6.085675    0.270723    0.000000
     27          1           0        7.872902    1.475387    0.000000
     28          1           0        6.632177    3.624335    0.000000
     29          1           0        4.168854    3.631649   -0.000000
     30          1           0        2.059215    2.406585   -0.000000
     31          1           0        2.434034   -3.112023    0.000000
     32          1           0        0.049907   -3.218870    0.000000
     33          1           0       -0.000000    2.325788   -0.000000
     34          1           0       -2.352433    2.236162   -0.000000
     35          1           0       -4.425573    2.170226   -0.000000
     36          1           0       -6.843256    1.971737   -0.000000
     37          1           0       -7.924669   -0.260946   -0.000000
     38          1           0       -6.538291   -2.291025   -0.000000
     39          1           0       -4.369482   -3.369634    0.000000
     40          1           0       -1.982842   -3.296334    0.000000
     41          1           0        4.500036   -1.886113    0.000000
     42          1           0        6.645274   -0.661937    0.000000
 ---------------------------------------------------------------------
 Rotational constants (GHZ):           0.7646239           0.0884249           0.0792590
 Standard basis: def2SVPP (5D, 7F)
 There are   318 symmetry adapted cartesian basis functions of A'  symmetry.
 There are   104 symmetry adapted cartesian basis functions of A"  symmetry.
 There are   292 symmetry adapted basis functions of A'  symmetry.
 There are   104 symmetry adapted basis functions of A"  symmetry.
   396 basis functions,   714 primitive gaussians,   422 cartesian basis functions
    86 alpha electrons       86 beta electrons
       nuclear repulsion energy      1951.3369979905 Hartrees.
 NAtoms=   42 NActive=   42 NUniq=   42 SFac= 1.00D+00 NAtFMM=   60 NAOKFM=F Big=F
 Integral buffers will be    131072 words long.
 Raffenetti 2 integral format.
 Two-electron integral symmetry is turned on.
 Nuclear repulsion after empirical dispersion term =     1951.2268729378 Hartrees.
 One-electron integrals computed using PRISM.
   2 Symmetry operations used in ECPInt.
 ECPInt:  NShTT=   17766 NPrTT=   71262 LenC2=   14972 LenP2D=   39760.
 LDataN:  DoStor=T MaxTD1= 4 Len=   56
 NBasis=   396 RedAO= T EigKep=  1.80D-04  NBF=   292   104
 NBsUse=   396 1.00D-06 EigRej= -1.00D+00 NBFU=   292   104
 ExpMin= 1.22D-01 ExpMax= 1.24D+03 ExpMxC= 1.86D+02 IAcc=3 IRadAn=         5 AccDes= 0.00D+00
 Harris functional with IExCor=  402 and IRadAn=       5 diagonalized for initial guess.
 HarFok:  IExCor=  402 AccDes= 0.00D+00 IRadAn=         5 IDoV= 1 UseB2=F ITyADJ=14
 ICtDFT=  3500011 ScaDFX=  1.000000  1.000000  1.000000  1.000000
 FoFCou: FMM=F IPFlag=           0 FMFlag=      100000 FMFlg1=           0
         NFxFlg=           0 DoJE=T BraDBF=F KetDBF=T FulRan=T
         wScrn=  0.000000 ICntrl=       500 IOpCl=  0 I1Cent=   200000004 NGrid=           0
         NMat0=    1 NMatS0=      1 NMatT0=    0 NMatD0=    1 NMtDS0=    0 NMtDT0=    0
 Petite list used in FoFCou.
 Initial guess orbital symmetries:
       Occupied  (A') (A') (A') (A') (A') (A') (A') (A') (A') (A')
                 (A') (A') (A') (A') (A') (A') (A') (A') (A') (A')
                 (A') (A') (A') (A') (A') (A') (A') (A') (A') (A')
                 (A') (A') (A') (A') (A') (A') (A') (A') (A') (A')
                 (A') (A') (A') (A') (A') (A') (A') (A') (A') (A')
                 (A') (A') (A') (A') (A') (A') (A') (A') (A') (A')
                 (A') (A') (A') (A') (A') (A') (A") (A') (A") (A')
                 (A') (A") (A') (A') (A') (A") (A') (A") (A") (A")
                 (A") (A") (A") (A") (A") (A")
       Virtual   (A") (A") (A") (A") (A") (A") (A") (A") (A") (A")
                 (A') (A') (A') (A') (A') (A") (A') (A') (A') (A")
                 (A') (A') (A') (A') (A') (A") (A') (A') (A') (A')
                 (A') (A') (A') (A') (A') (A') (A') (A') (A') (A')
                 (A') (A') (A') (A') (A') (A') (A') (A') (A') (A')
                 (A') (A') (A') (A') (A') (A') (A') (A') (A') (A')
                 (A') (A') (A') (A') (A') (A') (A") (A') (A") (A')
                 (A') (A') (A") (A') (A') (A') (A") (A") (A') (A')
                 (A") (A') (A") (A') (A') (A') (A") (A') (A") (A')
                 (A") (A") (A") (A') (A") (A") (A") (A') (A') (A")
                 (A") (A') (A') (A') (A') (A') (A') (A') (A") (A')
                 (A') (A") (A') (A') (A') (A") (A') (A') (A') (A')
                 (A") (A') (A') (A') (A") (A') (A') (A') (A') (A")
                 (A') (A') (A") (A') (A') (A') (A") (A') (A') (A')
                 (A') (A') (A") (A') (A') (A') (A') (A') (A') (A')
                 (A') (A') (A') (A') (A') (A') (A') (A') (A') (A')
                 (A") (A") (A") (A") (A') (A") (A") (A') (A') (A')
                 (A') (A') (A") (A') (A') (A") (A") (A') (A") (A')
                 (A") (A') (A") (A') (A") (A') (A") (A") (A') (A")
                 (A") (A") (A") (A") (A') (A") (A') (A') (A') (A')
                 (A') (A') (A') (A') (A') (A') (A') (A') (A') (A")
                 (A") (A') (A') (A") (A') (A') (A') (A') (A') (A")
                 (A') (A') (A") (A') (A') (A') (A") (A') (A') (A")
                 (A') (A') (A') (A') (A') (A") (A') (A') (A') (A')
                 (A") (A") (A') (A') (A') (A") (A') (A") (A') (A")
                 (A') (A") (A') (A") (A') (A") (A') (A") (A") (A")
                 (A') (A") (A") (A") (A") (A') (A") (A") (A') (A')
                 (A') (A') (A') (A') (A') (A") (A') (A") (A') (A')
                 (A') (A') (A") (A') (A") (A') (A') (A') (A") (A')
                 (A") (A') (A') (A') (A') (A') (A') (A') (A') (A')
                 (A') (A') (A') (A') (A') (A') (A') (A') (A') (A')
 The electronic state of the initial guess is 1-A'.
 Requested convergence on RMS density matrix=1.00D-08 within 128 cycles.
 Requested convergence on MAX density matrix=1.00D-06.
 Requested convergence on             energy=1.00D-06.
 No special actions if energy rises.
 Integral accuracy reduced to 1.0D-05 until final iterations.
 Initial convergence to 1.0D-05 achieved.  Increase integral accuracy.
 SCF Done:  E(RB3LYP) =  -999.813251860     A.U. after   16 cycles
            NFock= 16  Conv=0.52D-08     -V/T= 2.0105

 **********************************************************************

            Population analysis using the SCF Density.

 **********************************************************************

 Orbital symmetries:
       Occupied  (A') (A') (A') (A') (A') (A') (A') (A') (A') (A')
                 (A') (A') (A') (A') (A') (A') (A') (A') (A') (A')
                 (A') (A') (A') (A') (A') (A') (A') (A') (A') (A')
                 (A') (A') (A') (A') (A') (A') (A') (A') (A') (A')
                 (A') (A') (A') (A') (A') (A') (A') (A') (A') (A')
                 (A') (A') (A') (A') (A') (A') (A') (A') (A') (A')
                 (A') (A') (A") (A') (A') (A") (A') (A') (A') (A")
                 (A') (A') (A") (A') (A') (A') (A') (A") (A") (A")
                 (A") (A") (A") (A") (A") (A")
       Virtual   (A") (A") (A") (A") (A") (A") (A") (A") (A') (A')
                 (A') (A") (A') (A') (A') (A') (A") (A') (A') (A')
                 (A') (A') (A') (A") (A') (A") (A') (A') (A') (A")
                 (A') (A') (A') (A') (A') (A') (A') (A') (A') (A')
                 (A') (A') (A') (A') (A') (A') (A') (A') (A') (A')
                 (A') (A') (A') (A') (A') (A') (A') (A') (A') (A')
                 (A') (A') (A') (A") (A') (A') (A") (A') (A') (A')
                 (A") (A') (A') (A') (A") (A") (A') (A') (A") (A')
                 (A') (A") (A') (A') (A") (A') (A") (A') (A") (A')
                 (A") (A") (A') (A") (A") (A") (A') (A") (A") (A')
                 (A') (A') (A") (A') (A') (A") (A') (A') (A') (A")
                 (A') (A') (A') (A") (A') (A') (A") (A') (A') (A')
                 (A') (A') (A') (A") (A') (A') (A') (A') (A") (A')
                 (A') (A') (A") (A') (A') (A') (A') (A') (A') (A")
                 (A') (A') (A') (A') (A') (A') (A') (A') (A') (A')
                 (A') (A') (A') (A') (A') (A') (A') (A') (A') (A')
                 (A") (A') (A") (A") (A') (A") (A") (A") (A') (A')
                 (A') (A') (A') (A') (A") (A') (A") (A') (A') (A")
                 (A') (A") (A") (A') (A") (A') (A") (A') (A") (A")
                 (A") (A") (A") (A') (A") (A") (A") (A') (A') (A')
                 (A') (A') (A') (A') (A') (A') (A") (A') (A") (A')
                 (A') (A') (A") (A') (A') (A') (A') (A") (A') (A')
                 (A') (A") (A') (A') (A') (A') (A") (A') (A') (A")
                 (A') (A') (A') (A') (A') (A") (A') (A') (A') (A")
                 (A') (A") (A') (A') (A') (A") (A') (A") (A") (A')
                 (A") (A') (A') (A") (A') (A") (A') (A") (A") (A")
                 (A") (A') (A") (A") (A") (A") (A') (A") (A') (A')
                 (A') (A') (A') (A') (A') (A") (A") (A') (A') (A')
                 (A') (A") (A') (A") (A') (A') (A") (A') (A') (A')
                 (A") (A') (A') (A') (A') (A') (A') (A') (A') (A')
                 (A') (A') (A') (A') (A') (A') (A') (A') (A') (A')
 The electronic state is 1-A'.
 Alpha  occ. eigenvalues --  -10.20395 -10.20380 -10.20331 -10.20238 -10.20228
 Alpha  occ. eigenvalues --  -10.20198 -10.19647 -10.19460 -10.19452 -10.19421
 Alpha  occ. eigenvalues --  -10.19399 -10.19308 -10.19144 -10.19094 -10.19084
 Alpha  occ. eigenvalues --  -10.19079 -10.19078 -10.19045 -10.19037 -10.19024
 Alpha  occ. eigenvalues --  -10.19021 -10.18979 -10.18955 -10.18918 -10.18907
 Alpha  occ. eigenvalues --  -10.18885  -0.89065  -0.87928  -0.86008  -0.83410
 Alpha  occ. eigenvalues --   -0.80656  -0.79757  -0.78038  -0.76220  -0.76111
 Alpha  occ. eigenvalues --   -0.73552  -0.73062  -0.70778  -0.69503  -0.65355
 Alpha  occ. eigenvalues --   -0.63564  -0.62936  -0.62260  -0.60342  -0.59839
 Alpha  occ. eigenvalues --   -0.59348  -0.54900  -0.53795  -0.53158  -0.52780
 Alpha  occ. eigenvalues --   -0.50329  -0.50078  -0.49340  -0.47408  -0.46632
 Alpha  occ. eigenvalues --   -0.45737  -0.45516  -0.44383  -0.43470  -0.43113
 Alpha  occ. eigenvalues --   -0.42535  -0.42143  -0.41958  -0.40978  -0.40820
 Alpha  occ. eigenvalues --   -0.40501  -0.40084  -0.39732  -0.38598  -0.38141
 Alpha  occ. eigenvalues --   -0.37326  -0.36048  -0.35034  -0.34895  -0.34302
 Alpha  occ. eigenvalues --   -0.33678  -0.32473  -0.32407  -0.31024  -0.30242
 Alpha  occ. eigenvalues --   -0.28000  -0.27308  -0.24734  -0.23909  -0.21320
 Alpha  occ. eigenvalues --   -0.19455
 Alpha virt. eigenvalues --   -0.07713  -0.05893  -0.03556  -0.02642   0.00429
 Alpha virt. eigenvalues --    0.00768   0.03133   0.05317   0.06087   0.06324
 Alpha virt. eigenvalues --    0.06521   0.07637   0.07737   0.07831   0.09481
 Alpha virt. eigenvalues --    0.09927   0.11009   0.11280   0.11977   0.12992
 Alpha virt. eigenvalues --    0.13677   0.15128   0.15578   0.16114   0.18372
 Alpha virt. eigenvalues --    0.19931   0.19957   0.21248   0.22277   0.23580
 Alpha virt. eigenvalues --    0.23814   0.24180   0.24602   0.25710   0.26306
 Alpha virt. eigenvalues --    0.26702   0.27793   0.28011   0.28458   0.29375
 Alpha virt. eigenvalues --    0.29739   0.30094   0.30573   0.30727   0.31648
 Alpha virt. eigenvalues --    0.32106   0.33271   0.34342   0.34427   0.34732
 Alpha virt. eigenvalues --    0.35626   0.35843   0.36446   0.36850   0.37603
 Alpha virt. eigenvalues --    0.38145   0.39091   0.39921   0.40917   0.41574
 Alpha virt. eigenvalues --    0.42829   0.43568   0.44253   0.44375   0.44603
 Alpha virt. eigenvalues --    0.45091   0.45348   0.45863   0.46140   0.46375
 Alpha virt. eigenvalues --    0.46853   0.47491   0.47630   0.47960   0.48173
 Alpha virt. eigenvalues --    0.48751   0.48873   0.49093   0.49702   0.49974
 Alpha virt. eigenvalues --    0.50662   0.50931   0.51318   0.52418   0.52690
 Alpha virt. eigenvalues --    0.53629   0.53705   0.55141   0.55899   0.55931
 Alpha virt. eigenvalues --    0.56984   0.57481   0.57775   0.58801   0.59431
 Alpha virt. eigenvalues --    0.60995   0.61475   0.62499   0.62973   0.64506
 Alpha virt. eigenvalues --    0.65020   0.65618   0.66093   0.67022   0.67362
 Alpha virt. eigenvalues --    0.67442   0.67647   0.67697   0.68333   0.68840
 Alpha virt. eigenvalues --    0.69034   0.69560   0.69966   0.71176   0.71224
 Alpha virt. eigenvalues --    0.71823   0.72608   0.72608   0.73238   0.73461
 Alpha virt. eigenvalues --    0.74334   0.74574   0.75516   0.75873   0.76183
 Alpha virt. eigenvalues --    0.76647   0.76870   0.77683   0.78340   0.78758
 Alpha virt. eigenvalues --    0.79232   0.80009   0.80178   0.80244   0.81166
 Alpha virt. eigenvalues --    0.82379   0.82857   0.83585   0.84399   0.86316
 Alpha virt. eigenvalues --    0.86443   0.87258   0.87619   0.90197   0.91045
 Alpha virt. eigenvalues --    0.91251   0.93257   0.97494   0.99511   1.00678
 Alpha virt. eigenvalues --    1.03132   1.07686   1.08994   1.11571   1.12228
 Alpha virt. eigenvalues --    1.12723   1.14189   1.14907   1.16965   1.18368
 Alpha virt. eigenvalues --    1.20888   1.21443   1.21768   1.23098   1.23297
 Alpha virt. eigenvalues --    1.23772   1.25308   1.25616   1.26797   1.27391
 Alpha virt. eigenvalues --    1.27780   1.28328   1.30151   1.32020   1.32826
 Alpha virt. eigenvalues --    1.34739   1.36209   1.36436   1.37670   1.38151
 Alpha virt. eigenvalues --    1.39556   1.39594   1.40026   1.41004   1.42228
 Alpha virt. eigenvalues --    1.43463   1.44451   1.45483   1.45626   1.46801
 Alpha virt. eigenvalues --    1.47717   1.48243   1.48815   1.49223   1.49249
 Alpha virt. eigenvalues --    1.49487   1.50254   1.51000   1.53666   1.55482
 Alpha virt. eigenvalues --    1.57077   1.67768   1.69932   1.70549   1.72138
 Alpha virt. eigenvalues --    1.72555   1.73405   1.73519   1.74099   1.74384
 Alpha virt. eigenvalues --    1.75167   1.78350   1.79312   1.80061   1.82813
 Alpha virt. eigenvalues --    1.83362   1.83693   1.84716   1.85294   1.85952
 Alpha virt. eigenvalues --    1.86090   1.88044   1.88096   1.89336   1.90050
 Alpha virt. eigenvalues --    1.92548   1.92950   1.94641   1.94803   1.98786
 Alpha virt. eigenvalues --    2.00179   2.00749   2.02664   2.04853   2.05621
 Alpha virt. eigenvalues --    2.05860   2.07277   2.08909   2.09296   2.10621
 Alpha virt. eigenvalues --    2.11616   2.12167   2.13997   2.14978   2.15261
 Alpha virt. eigenvalues --    2.15671   2.17711   2.18264   2.19666   2.19758
 Alpha virt. eigenvalues --    2.21224   2.21472   2.22383   2.25051   2.26197
 Alpha virt. eigenvalues --    2.26488   2.27896   2.28134   2.28651   2.29232
 Alpha virt. eigenvalues --    2.32446   2.33098   2.33906   2.35128   2.36115
 Alpha virt. eigenvalues --    2.37591   2.38233   2.39497   2.41356   2.45105
 Alpha virt. eigenvalues --    2.47886   2.48466   2.52809   2.54644   2.55417
 Alpha virt. eigenvalues --    2.57575   2.59050   2.60273   2.60953   2.62888
 Alpha virt. eigenvalues --    2.63154   2.63497   2.64955   2.65793   2.66221
 Alpha virt. eigenvalues --    2.66850   2.67726   2.68008   2.69139   2.70065
 Alpha virt. eigenvalues --    2.70157   2.73429   2.74480   2.78028   2.80564
 Alpha virt. eigenvalues --    2.82027   2.85023   2.87944   2.89443   2.92524
 Alpha virt. eigenvalues --    2.98130   3.02049   3.04914   3.06513   3.27074
 Alpha virt. eigenvalues --    3.29957   3.38964   3.43682   3.47995   3.55220
          Condensed to atoms (all electrons):
               1          2          3          4          5          6
     1  C    5.239936   0.142248   0.147618  -0.158647  -0.002425   0.000259
     2  C    0.142248   5.238317   0.225868   0.143629   0.019890  -0.001099
     3  C    0.147618   0.225868   5.456633   0.209146  -0.155149   0.017624
     4  C   -0.158647   0.143629   0.209146   5.411206   0.251273   0.119659
     5  C   -0.002425   0.019890  -0.155149   0.251273   5.703968   0.286024
     6  C    0.000259  -0.001099   0.017624   0.119659   0.286024   5.539252
     7  C   -0.001315   0.000333  -0.001984  -0.151211   0.012208   0.015941
     8  C    0.000019  -0.000005   0.000092  -0.001542   0.027632   0.034124
     9  C   -0.000000   0.000000  -0.000005  -0.000002  -0.003722  -0.140748
    10  C    0.000000  -0.000000   0.000011   0.000779   0.020516   0.007000
    11  C   -0.000004   0.000004  -0.000459   0.023305  -0.151943   0.219651
    12  C   -0.000000   0.000001  -0.000063   0.000018  -0.032009  -0.149810
    13  C   -0.000000   0.000000  -0.000001  -0.000124   0.000873   0.022619
    14  C   -0.000000  -0.000000   0.000000   0.000008  -0.000075  -0.003488
    15  C   -0.000000  -0.000000   0.000000  -0.000000  -0.000002   0.000078
    16  C   -0.000000   0.000000  -0.000000  -0.000000  -0.000000  -0.000002
    17  C   -0.000000   0.000000  -0.000000  -0.000000   0.000000  -0.000000
    18  C    0.000000  -0.000000   0.000000   0.000000   0.000000   0.000000
    19  C    0.000000   0.000000  -0.000000  -0.000000   0.000000  -0.000000
    20  C    0.000000  -0.000000   0.000000   0.000000   0.000000  -0.000000
    21  C   -0.000000   0.000000  -0.000000  -0.000000  -0.000000  -0.000001
    22  C    0.000000  -0.000000   0.000000  -0.000000   0.000008  -0.000050
    23  C    0.000000  -0.000000   0.000000   0.000001   0.000060   0.025521
    24  C    0.020287  -0.002315   0.026689   0.030200  -0.145839   0.033566
    25  C    0.146602  -0.161107   0.045351  -0.039288   0.021924  -0.133918
    26  C    0.220846   0.147994  -0.177062   0.046554   0.026403  -0.001321
    27  H    0.436322  -0.084747   0.015123  -0.001399   0.000048  -0.000001
    28  H   -0.084825   0.436415  -0.076671   0.015745  -0.000514   0.000006
    29  H    0.015414  -0.081263   0.434067  -0.076034  -0.023521   0.000505
    30  H   -0.000010   0.000485  -0.018424  -0.083815   0.413252  -0.049597
    31  H    0.000000  -0.000000   0.000001  -0.000022  -0.000417   0.016456
    32  H   -0.000000   0.000000   0.000000  -0.000002   0.000049  -0.001694
    33  H   -0.000000   0.000000  -0.000046   0.001924   0.009938  -0.041241
    34  H    0.000000  -0.000000  -0.000000  -0.000001  -0.000006  -0.000394
    35  H    0.000000   0.000000  -0.000000   0.000000   0.000000  -0.000001
    36  H    0.000000  -0.000000   0.000000  -0.000000  -0.000000   0.000000
    37  H    0.000000   0.000000   0.000000  -0.000000  -0.000000   0.000000
    38  H    0.000000  -0.000000   0.000000   0.000000   0.000000  -0.000000
    39  H    0.000000  -0.000000   0.000000  -0.000000   0.000000  -0.000000
    40  H    0.000000  -0.000000   0.000000   0.000000   0.000000   0.000037
    41  H    0.000538  -0.000021  -0.000354   0.019388  -0.002692   0.017295
    42  H   -0.081857   0.015570  -0.002109   0.018093  -0.000323  -0.000009
               7          8          9         10         11         12
     1  C   -0.001315   0.000019  -0.000000   0.000000  -0.000004  -0.000000
     2  C    0.000333  -0.000005   0.000000  -0.000000   0.000004   0.000001
     3  C   -0.001984   0.000092  -0.000005   0.000011  -0.000459  -0.000063
     4  C   -0.151211  -0.001542  -0.000002   0.000779   0.023305   0.000018
     5  C    0.012208   0.027632  -0.003722   0.020516  -0.151943  -0.032009
     6  C    0.015941   0.034124  -0.140748   0.007000   0.219651  -0.149810
     7  C    5.519967   0.144701   0.159475  -0.180082   0.022377   0.027396
     8  C    0.144701   5.498829   0.228476   0.139408  -0.155341  -0.003924
     9  C    0.159475   0.228476   5.517985   0.171270   0.007865   0.029683
    10  C   -0.180082   0.139408   0.171270   5.625458   0.139822  -0.002357
    11  C    0.022377  -0.155341   0.007865   0.139822   5.619911   0.198306
    12  C    0.027396  -0.003924   0.029683  -0.002357   0.198306   5.489184
    13  C    0.000384  -0.000129  -0.003649  -0.152517   0.131535   0.259467
    14  C   -0.000446   0.000469   0.023128   0.010461  -0.175116   0.133197
    15  C    0.000000  -0.000001  -0.000068   0.025661  -0.003510   0.022743
    16  C    0.000000  -0.000000   0.000008   0.000031  -0.000087   0.001023
    17  C    0.000000  -0.000000  -0.000000   0.000001   0.000006  -0.000098
    18  C   -0.000000   0.000000   0.000000  -0.000002  -0.000001   0.000007
    19  C    0.000000  -0.000000  -0.000002   0.000072   0.000003  -0.000005
    20  C   -0.000001   0.000009  -0.000087  -0.004180  -0.000416   0.000275
    21  C    0.000009  -0.000116   0.001120   0.022444   0.000460  -0.000109
    22  C   -0.000092   0.001134  -0.030314  -0.148507   0.022938  -0.003733
    23  C   -0.004312   0.022607  -0.149209   0.259814   0.009981  -0.152116
    24  C    0.225772  -0.163818   0.020182  -0.000599   0.024402  -0.000493
    25  C    0.155102   0.022668  -0.001457  -0.000129  -0.003564   0.000061
    26  C    0.019023  -0.001099   0.000018  -0.000005   0.000115   0.000001
    27  H    0.000009  -0.000000   0.000000  -0.000000   0.000000   0.000000
    28  H   -0.000002   0.000000  -0.000000   0.000000   0.000000  -0.000000
    29  H   -0.000009   0.000001  -0.000000   0.000000  -0.000037   0.000003
    30  H    0.020082  -0.000324  -0.000007  -0.001616  -0.041277   0.012935
    31  H   -0.091781   0.444731  -0.076484   0.017083  -0.001915   0.000050
    32  H    0.017542  -0.078778   0.422085  -0.055604   0.018706  -0.000321
    33  H   -0.001265  -0.000041  -0.000331   0.018301  -0.059108   0.423627
    34  H    0.000012  -0.000001   0.000037  -0.001868   0.017725  -0.075497
    35  H   -0.000000   0.000000   0.000001   0.000032  -0.000058   0.001661
    36  H   -0.000000  -0.000000   0.000000  -0.000000   0.000000  -0.000001
    37  H    0.000000  -0.000000  -0.000000   0.000000   0.000000  -0.000000
    38  H    0.000000   0.000000  -0.000000  -0.000001   0.000000  -0.000000
    39  H    0.000000  -0.000001   0.000007  -0.000338   0.000009  -0.000001
    40  H   -0.000095   0.001835   0.010723  -0.042032  -0.001515  -0.000028
    41  H   -0.085098  -0.020965   0.001136  -0.000075  -0.000157   0.000013
    42  H    0.000720  -0.000049   0.000001  -0.000000   0.000000   0.000000
              13         14         15         16         17         18
     1  C   -0.000000  -0.000000  -0.000000  -0.000000  -0.000000   0.000000
     2  C    0.000000  -0.000000  -0.000000   0.000000   0.000000  -0.000000
     3  C   -0.000001   0.000000   0.000000  -0.000000  -0.000000   0.000000
     4  C   -0.000124   0.000008  -0.000000  -0.000000  -0.000000   0.000000
     5  C    0.000873  -0.000075  -0.000002  -0.000000   0.000000   0.000000
     6  C    0.022619  -0.003488   0.000078  -0.000002  -0.000000   0.000000
     7  C    0.000384  -0.000446   0.000000   0.000000   0.000000  -0.000000
     8  C   -0.000129   0.000469  -0.000001  -0.000000  -0.000000   0.000000
     9  C   -0.003649   0.023128  -0.000068   0.000008  -0.000000   0.000000
    10  C   -0.152517   0.010461   0.025661   0.000031   0.000001  -0.000002
    11  C    0.131535  -0.175116  -0.003510  -0.000087   0.000006  -0.000001
    12  C    0.259467   0.133197   0.022743   0.001023  -0.000098   0.000007
    13  C    5.487298   0.194325  -0.147219  -0.030550   0.000234   0.000020
    14  C    0.194325   5.617257   0.229332  -0.148128   0.022219  -0.004489
    15  C   -0.147219   0.229332   5.554669   0.255076   0.123049  -0.156500
    16  C   -0.030550  -0.148128   0.255076   5.442043   0.247859   0.145589
    17  C    0.000234   0.022219   0.123049   0.247859   5.213072   0.159223
    18  C    0.000020  -0.004489  -0.156500   0.145589   0.159223   5.239933
    19  C   -0.000375   0.026166   0.045719  -0.175430   0.151077   0.194809
    20  C    0.026679   0.017193   0.052812   0.023781  -0.173213   0.154529
    21  C   -0.003849  -0.151143   0.027951   0.029099  -0.002158   0.022240
    22  C    0.029689   0.005000  -0.139513  -0.004044   0.000150  -0.001396
    23  C    0.001328   0.138211   0.000500   0.019773   0.000493  -0.000058
    24  C   -0.000002   0.000002  -0.000000  -0.000000  -0.000000   0.000000
    25  C    0.000006  -0.000001   0.000000   0.000000   0.000000  -0.000000
    26  C   -0.000000   0.000000   0.000000   0.000000   0.000000  -0.000000
    27  H    0.000000  -0.000000   0.000000   0.000000   0.000000   0.000000
    28  H   -0.000000   0.000000  -0.000000  -0.000000  -0.000000   0.000000
    29  H   -0.000000  -0.000000  -0.000000  -0.000000  -0.000000   0.000000
    30  H    0.001546  -0.000055  -0.000001   0.000000   0.000000  -0.000000
    31  H   -0.000001   0.000009  -0.000000   0.000000  -0.000000  -0.000000
    32  H   -0.000030  -0.001482   0.000035   0.000000   0.000000  -0.000000
    33  H   -0.076058   0.017605  -0.000396  -0.000006  -0.000001   0.000000
    34  H    0.425319  -0.062029  -0.039362   0.009157   0.001332  -0.000068
    35  H    0.012041  -0.041995  -0.046641   0.416192  -0.082327   0.015856
    36  H    0.000002  -0.000255   0.015816  -0.074722   0.436703  -0.086682
    37  H   -0.000000   0.000055  -0.001167   0.015146  -0.084673   0.436622
    38  H    0.000010  -0.000150   0.017024  -0.002350   0.016388  -0.083472
    39  H    0.000047  -0.001956   0.016554  -0.000339  -0.000066   0.001016
    40  H   -0.000320   0.018806  -0.001723   0.000045  -0.000002   0.000017
    41  H   -0.000000   0.000000  -0.000000   0.000000   0.000000   0.000000
    42  H    0.000000  -0.000000   0.000000   0.000000   0.000000  -0.000000
              19         20         21         22         23         24
     1  C    0.000000   0.000000  -0.000000   0.000000   0.000000   0.020287
     2  C    0.000000  -0.000000   0.000000  -0.000000  -0.000000  -0.002315
     3  C   -0.000000   0.000000  -0.000000   0.000000   0.000000   0.026689
     4  C   -0.000000   0.000000  -0.000000  -0.000000   0.000001   0.030200
     5  C    0.000000   0.000000  -0.000000   0.000008   0.000060  -0.145839
     6  C   -0.000000  -0.000000  -0.000001  -0.000050   0.025521   0.033566
     7  C    0.000000  -0.000001   0.000009  -0.000092  -0.004312   0.225772
     8  C   -0.000000   0.000009  -0.000116   0.001134   0.022607  -0.163818
     9  C   -0.000002  -0.000087   0.001120  -0.030314  -0.149209   0.020182
    10  C    0.000072  -0.004180   0.022444  -0.148507   0.259814  -0.000599
    11  C    0.000003  -0.000416   0.000460   0.022938   0.009981   0.024402
    12  C   -0.000005   0.000275  -0.000109  -0.003733  -0.152116  -0.000493
    13  C   -0.000375   0.026679  -0.003849   0.029689   0.001328  -0.000002
    14  C    0.026166   0.017193  -0.151143   0.005000   0.138211   0.000002
    15  C    0.045719   0.052812   0.027951  -0.139513   0.000500  -0.000000
    16  C   -0.175430   0.023781   0.029099  -0.004044   0.019773  -0.000000
    17  C    0.151077  -0.173213  -0.002158   0.000150   0.000493  -0.000000
    18  C    0.194809   0.154529   0.022240  -0.001396  -0.000058   0.000000
    19  C    5.467073   0.217706  -0.162651   0.019277  -0.000597  -0.000000
    20  C    0.217706   5.506901   0.161367   0.155695  -0.174938   0.000000
    21  C   -0.162651   0.161367   5.483727   0.230673   0.136078  -0.000000
    22  C    0.019277   0.155695   0.230673   5.505699   0.185442  -0.000002
    23  C   -0.000597  -0.174938   0.136078   0.185442   5.613442   0.000081
    24  C   -0.000000   0.000000  -0.000000  -0.000002   0.000081   5.757339
    25  C    0.000000  -0.000000   0.000000   0.000000  -0.000002   0.196637
    26  C   -0.000000  -0.000000   0.000000  -0.000000  -0.000000  -0.163861
    27  H    0.000000  -0.000000  -0.000000   0.000000   0.000000  -0.000504
    28  H   -0.000000   0.000000  -0.000000   0.000000  -0.000000   0.000047
    29  H    0.000000   0.000000  -0.000000   0.000000   0.000000  -0.000351
    30  H   -0.000000  -0.000000   0.000000   0.000001   0.000030  -0.002150
    31  H   -0.000000   0.000000  -0.000001   0.000007  -0.000342  -0.021232
    32  H    0.000000  -0.000091   0.001809   0.010649  -0.041866  -0.000661
    33  H   -0.000000   0.000011  -0.000001   0.000037  -0.001853   0.000029
    34  H    0.000038  -0.000956  -0.000055  -0.000323   0.018205  -0.000000
    35  H   -0.001913   0.019769  -0.000294  -0.000013  -0.001731  -0.000000
    36  H    0.015676  -0.001746   0.000028  -0.000001   0.000007  -0.000000
    37  H   -0.078874   0.015693  -0.000560   0.000010  -0.000000  -0.000000
    38  H    0.441508  -0.080838  -0.022636   0.001098  -0.000072  -0.000000
    39  H   -0.020171  -0.091322   0.443257  -0.075755   0.016995  -0.000000
    40  H   -0.000631   0.017483  -0.079553   0.421744  -0.054706   0.000000
    41  H   -0.000000   0.000000   0.000000  -0.000000  -0.000001   0.442679
    42  H    0.000000  -0.000000   0.000000  -0.000000  -0.000000  -0.022465
              25         26         27         28         29         30
     1  C    0.146602   0.220846   0.436322  -0.084825   0.015414  -0.000010
     2  C   -0.161107   0.147994  -0.084747   0.436415  -0.081263   0.000485
     3  C    0.045351  -0.177062   0.015123  -0.076671   0.434067  -0.018424
     4  C   -0.039288   0.046554  -0.001399   0.015745  -0.076034  -0.083815
     5  C    0.021924   0.026403   0.000048  -0.000514  -0.023521   0.413252
     6  C   -0.133918  -0.001321  -0.000001   0.000006   0.000505  -0.049597
     7  C    0.155102   0.019023   0.000009  -0.000002  -0.000009   0.020082
     8  C    0.022668  -0.001099  -0.000000   0.000000   0.000001  -0.000324
     9  C   -0.001457   0.000018   0.000000  -0.000000  -0.000000  -0.000007
    10  C   -0.000129  -0.000005  -0.000000   0.000000   0.000000  -0.001616
    11  C   -0.003564   0.000115   0.000000   0.000000  -0.000037  -0.041277
    12  C    0.000061   0.000001   0.000000  -0.000000   0.000003   0.012935
    13  C    0.000006  -0.000000   0.000000  -0.000000  -0.000000   0.001546
    14  C   -0.000001   0.000000  -0.000000   0.000000  -0.000000  -0.000055
    15  C    0.000000   0.000000   0.000000  -0.000000  -0.000000  -0.000001
    16  C    0.000000   0.000000   0.000000  -0.000000  -0.000000   0.000000
    17  C    0.000000   0.000000   0.000000  -0.000000  -0.000000   0.000000
    18  C   -0.000000  -0.000000   0.000000   0.000000   0.000000  -0.000000
    19  C    0.000000  -0.000000   0.000000  -0.000000   0.000000  -0.000000
    20  C   -0.000000  -0.000000  -0.000000   0.000000   0.000000  -0.000000
    21  C    0.000000   0.000000  -0.000000  -0.000000  -0.000000   0.000000
    22  C    0.000000  -0.000000   0.000000   0.000000   0.000000   0.000001
    23  C   -0.000002  -0.000000   0.000000  -0.000000   0.000000   0.000030
    24  C    0.196637  -0.163861  -0.000504   0.000047  -0.000351  -0.002150
    25  C    5.461113   0.198370   0.015668  -0.001359   0.018346   0.018875
    26  C    0.198370   5.471321  -0.076870   0.015081  -0.002073  -0.000381
    27  H    0.015668  -0.076870   0.668933  -0.012389  -0.000316  -0.000001
    28  H   -0.001359   0.015081  -0.012389   0.668938  -0.012452  -0.000010
    29  H    0.018346  -0.002073  -0.000316  -0.012452   0.676806   0.009284
    30  H    0.018875  -0.000381  -0.000001  -0.000010   0.009284   0.687340
    31  H    0.001246  -0.000061  -0.000000   0.000000   0.000000   0.000011
    32  H    0.000018  -0.000000  -0.000000   0.000000  -0.000000   0.000000
    33  H   -0.000043  -0.000000  -0.000000   0.000000  -0.000028   0.000730
    34  H    0.000000   0.000000  -0.000000   0.000000   0.000000   0.000031
    35  H    0.000000  -0.000000   0.000000   0.000000  -0.000000   0.000000
    36  H    0.000000   0.000000   0.000000   0.000000  -0.000000  -0.000000
    37  H    0.000000  -0.000000   0.000000   0.000000   0.000000  -0.000000
    38  H    0.000000  -0.000000   0.000000   0.000000  -0.000000   0.000000
    39  H   -0.000000   0.000000  -0.000000   0.000000  -0.000000   0.000000
    40  H   -0.000000  -0.000000  -0.000000   0.000000   0.000000  -0.000000
    41  H   -0.084202  -0.018939  -0.000014  -0.000001   0.000012   0.000026
    42  H   -0.078868   0.437492  -0.012376  -0.000320   0.000036   0.000012
              31         32         33         34         35         36
     1  C    0.000000  -0.000000  -0.000000   0.000000   0.000000   0.000000
     2  C   -0.000000   0.000000   0.000000  -0.000000   0.000000  -0.000000
     3  C    0.000001   0.000000  -0.000046  -0.000000  -0.000000   0.000000
     4  C   -0.000022  -0.000002   0.001924  -0.000001   0.000000  -0.000000
     5  C   -0.000417   0.000049   0.009938  -0.000006   0.000000  -0.000000
     6  C    0.016456  -0.001694  -0.041241  -0.000394  -0.000001   0.000000
     7  C   -0.091781   0.017542  -0.001265   0.000012  -0.000000  -0.000000
     8  C    0.444731  -0.078778  -0.000041  -0.000001   0.000000  -0.000000
     9  C   -0.076484   0.422085  -0.000331   0.000037   0.000001   0.000000
    10  C    0.017083  -0.055604   0.018301  -0.001868   0.000032  -0.000000
    11  C   -0.001915   0.018706  -0.059108   0.017725  -0.000058   0.000000
    12  C    0.000050  -0.000321   0.423627  -0.075497   0.001661  -0.000001
    13  C   -0.000001  -0.000030  -0.076058   0.425319   0.012041   0.000002
    14  C    0.000009  -0.001482   0.017605  -0.062029  -0.041995  -0.000255
    15  C   -0.000000   0.000035  -0.000396  -0.039362  -0.046641   0.015816
    16  C    0.000000   0.000000  -0.000006   0.009157   0.416192  -0.074722
[...]
 6,0.00007781,0.00006578,0.00009269,0.00020706,0.00004416,-0.00000207,-
 0.00000616,-0.00000603,-0.00000272,0.00000445,0.00000426,0.00000207,-0
 .00000506,-0.00000508,-0.00000237,-0.00000047,0.00000015,-0.00000152,-
 0.00000153,-0.00000082,0.00000153,-0.00000076,-0.00000011,0.00000274,0
 .00000098,0.00000138,-0.00000436,0.,0.00000333,0.00000176,-0.00000373,
 0.00000142,-0.00000418,0.00001855,-0.00002470,0.00000992,0.00000303,0.
 00000777,-0.00009713,0.00050709,-0.00062205,-0.00052053,-0.00061398,-0
 .00029279,-0.00013432,0.00297133,-0.00212756,0.08159111,0.12551824,0.1
 3207460,-0.00000920,-0.00000737,-0.00000587,-0.00001303,-0.00000172,-0
 .00000073,-0.00000789,0.00001337,0.00001306,-0.00000403,-0.00001317,-0
 .00001136,-0.00005417,0.00003034,0.00002869,-0.00001561,-0.00011541,-0
 .00010441,-0.00001758,-0.00001173,-0.00000341,0.00001386,0.00006054,0.
 00005093,-0.00002575,-0.00007209,-0.00004489,0.00010221,-0.00109685,-0
 .00096998,-0.00041232,0.00006074,0.00003241,-0.00010701,0.00007241,0.0
 0008124,0.00020664,0.00004304,-0.00003294,-0.00037706,0.00035934,0.000
 31854,-0.00138743,0.00155427,0.00176625,0.00045835,0.00046923,0.000393
 65,0.00021984,0.00012036,0.00008597,0.00011158,-0.00028499,-0.00026808
 ,0.00094411,0.00132869,0.00094754,0.00980972,0.00994085,0.00846772,-0.
 13329390,-0.09509172,-0.07837548,-0.01268961,-0.02172349,-0.01820082,-
 0.00468354,0.00130713,0.00212611,0.00001748,-0.00000741,-0.00000785,-0
 .00001490,0.00000045,0.00000083,0.00001361,-0.00000924,-0.00000935,-0.
 00000513,-0.00000089,-0.00000038,-0.00000398,-0.00000247,-0.00000202,0
 .00000323,-0.00000137,-0.00000138,0.00000773,0.00000031,0.00000005,-0.
 00002917,0.00000556,0.00000509,0.00002248,0.00001605,0.00001339,-0.000
 00225,-0.00001862,-0.00000857,-0.00002032,-0.00004047,-0.00003228,-0.0
 0010641,0.00013746,0.00013525,-0.00001461,-0.00002292,-0.00001679,0.00
 002850,-0.00002841,-0.00001954,-0.00017722,-0.00030254,-0.00024669,0.1
 4041414,-0.00000510,0.00000081,0.00000006,-0.00000104,-0.00000133,0.00
 000028,-0.00000531,0.00000657,-0.00000080,0.00000848,0.00000029,-0.000
 00215,-0.00001294,-0.00001308,0.00001777,0.00003307,-0.00001764,0.0000
 1101,-0.00000950,0.00004600,-0.00003285,-0.00001002,-0.00002569,0.0000
 0655,-0.00000658,0.00011290,-0.00012575,-0.00001518,0.00009919,-0.0001
 4325,-0.00000987,-0.00025566,0.00042089,0.00002552,0.00004760,-0.00007
 403,-0.00004631,-0.00035451,0.00041401,0.00057282,-0.00001153,0.000323
 40,0.00291924,0.00053588,-0.00328816,-0.00098977,-0.00038335,-0.000350
 74,0.00006692,0.00007673,0.00014433,0.00026865,0.00001183,0.00006020,-
 0.00163983,-0.00055352,0.00185280,-0.01174859,-0.00895394,-0.01054643,
 -0.09541392,-0.16689062,-0.10868880,0.00158599,0.00395232,-0.00093379,
 0.00019578,0.00482378,-0.00373521,-0.00000360,-0.00000637,-0.00000548,
 -0.00000337,0.00000111,0.00000910,0.00000175,-0.00000603,-0.00000391,-
 0.00000213,0.00000006,-0.00000044,-0.00000139,-0.00000173,-0.00000037,
 0.00000134,0.00000008,-0.00000095,0.00000214,0.00000319,-0.00000134,-0
 .00000467,-0.00001063,0.00001538,-0.00001783,-0.00000637,-0.00001221,-
 0.00001644,0.00004508,-0.00005988,0.00001883,0.00002585,-0.00001007,0.
 00016163,-0.00015556,-0.00021247,0.00004700,0.00003742,-0.00000406,0.0
 0002187,0.00003450,-0.00007108,0.00093906,0.00028398,0.00004119,0.1030
 3927,0.16947056,-0.00000384,0.00000022,0.00000160,-0.00000013,0.000000
 32,-0.00000126,-0.00000365,-0.00000211,0.00000625,0.00000801,-0.000000
 64,0.00000090,-0.00001001,0.00001474,-0.00001804,0.00002840,0.00002141
 ,-0.00001538,-0.00000143,-0.00003269,0.00005432,-0.00001219,0.00000161
 ,-0.00002994,0.00001370,-0.00012116,0.00014467,-0.00000249,-0.00006752
 ,0.00020031,-0.00003076,0.00041595,-0.00035125,0.00003931,-0.00007732,
 0.00005647,-0.00011287,0.00040775,-0.00044114,0.00050949,0.00033835,-0
 .00015098,0.00298715,-0.00319260,0.00091885,-0.00091134,-0.00045289,-0
 .00025502,0.00003817,0.00014058,0.00003321,0.00022712,0.00009896,-0.00
 000389,-0.00170764,0.00164496,-0.00090574,-0.01093222,-0.01206501,-0.0
 0626925,-0.07866367,-0.10871136,-0.12963448,0.00264816,0.00069821,0.00
 531127,0.00113208,-0.00381302,0.00549468,-0.00000444,-0.00000521,-0.00
 000431,-0.00000259,0.00000883,-0.00000071,0.00000049,-0.00000315,-0.00
 000463,-0.00000150,-0.00000053,0.00000035,-0.00000105,-0.00000030,-0.0
 0000139,0.00000105,-0.00000076,0.00000028,0.00000169,-0.00000121,0.000
 00331,-0.00000406,0.00001466,-0.00001406,-0.00001691,-0.00001458,-0.00
 000318,-0.00000661,-0.00005972,0.00006035,0.00002076,-0.00000592,0.000
 02889,0.00015688,-0.00021077,-0.00013018,0.00004574,0.00000083,0.00003
 582,0.00002543,-0.00006756,0.00005005,0.00086386,0.00012812,0.00021853
 ,0.08411625,0.12156821,0.12833610,0.00000107,0.00001041,0.00000916,0.0
 0001948,0.00000819,0.00000592,0.00000470,-0.00001749,-0.00001592,0.000
 01851,0.00001936,0.00001574,0.00001541,-0.00002447,-0.00002356,0.00005
 374,0.00007400,0.00006833,0.00003448,-0.00003723,-0.00003332,-0.000072
 53,0.00013302,0.00010825,-0.00385217,-0.00146083,-0.00103204,-0.000001
 62,0.00106906,0.00079885,0.00008172,0.00002093,0.00001087,0.00005301,0
 .00000287,-0.00001456,0.00071992,-0.00044230,-0.00043247,-0.00208318,-
 0.00220362,-0.00154741,-0.00047406,-0.00028950,-0.00025109,0.00024876,
 0.00001624,-0.00005578,-0.00013249,-0.00013411,-0.00010206,-0.00045365
 ,0.00007388,0.00004748,0.00018136,0.00097592,0.00086978,-0.00512067,-0
 .00181408,-0.00060632,-0.01135853,0.02233683,0.02116335,-0.11173023,0.
 08095820,0.07754948,0.01217358,-0.01018719,-0.00972566,-0.00002573,0.0
 0003698,0.00003747,0.00000318,-0.00000058,-0.00000135,-0.00001352,0.00
 001353,0.00001227,0.00000628,0.00000120,0.00000086,0.00000394,0.000002
 81,0.00000226,-0.00000260,0.00000429,0.00000411,0.00000215,0.00001128,
 0.00001034,0.00002012,0.00001862,0.00001583,-0.00447913,-0.00019192,0.
 00023592,-0.00001600,0.00001772,0.00001997,-0.00013746,-0.00018185,-0.
 00015238,-0.00001486,0.00003390,0.00003366,0.00000120,0.00000814,0.000
 01311,-0.00006987,0.00009300,0.00008664,-0.00002443,-0.00005397,-0.000
 03158,0.00110809,0.00005682,-0.00043279,0.12531393,-0.00000839,0.00000
 151,0.00000289,0.00000875,0.00001017,0.00000899,-0.00000131,-0.0000074
 6,-0.00000729,0.00002278,0.00001543,0.00001583,-0.00002958,-0.00001092
 ,-0.00000006,0.00010094,0.00004402,-0.00004312,0.00015557,-0.00003319,
 -0.00007116,-0.00000553,0.00047531,0.00062744,0.00093951,-0.00047314,-
 0.00055132,0.00147104,-0.00114609,0.00088358,-0.00012200,-0.00004893,-
 0.00000796,-0.00001587,-0.00003493,0.00014125,0.00084385,-0.00031348,-
 0.00051258,-0.00334120,0.00044746,-0.00291407,-0.00048416,0.00001536,0
 .00037139,0.00010596,-0.00032819,0.00037470,-0.00004351,0.00004589,-0.
 00006599,0.00008061,-0.00025964,0.00040549,0.00000659,0.00002445,-0.00
 010081,-0.00077010,0.00499186,-0.00388384,-0.00170736,0.00430018,-0.00
 100477,0.08138635,-0.17056233,-0.12394647,0.01014425,-0.00861591,-0.01
 146387,-0.00000393,0.00008452,0.00004284,-0.00000814,-0.00001307,-0.00
 000332,0.00000334,0.00000611,0.00001517,0.00000241,0.00000241,-0.00000
 087,0.00000082,0.00000100,0.00000056,0.00000046,0.00000519,0.00000348,
 0.00001332,0.00002234,0.00001387,-0.00001778,-0.00000592,-0.00001161,0
 .00017088,0.00185708,0.00044848,-0.00003224,0.00002455,-0.00001415,-0.
 00017522,-0.00018510,-0.00016157,-0.00001811,0.00002243,-0.00000797,0.
 00001101,0.00003215,-0.00004749,-0.00000111,-0.00000909,0.00001020,0.0
 0000134,0.00009839,-0.00010356,0.00028578,-0.00197327,0.00340201,-0.08
 895442,0.17149073,-0.00000765,0.00000158,0.00000087,0.00000642,0.00000
 903,0.00000706,-0.00000144,-0.00000616,-0.00000461,0.00001880,0.000016
 07,0.00000901,-0.00002813,-0.00000042,-0.00000694,0.00009243,-0.000041
 24,0.00004097,0.00013913,-0.00005766,-0.00002713,-0.00001567,0.0006177
 4,0.00032789,0.00111493,-0.00038326,-0.00035117,0.00115841,0.00091173,
 -0.00151472,-0.00011698,-0.00001797,-0.00003836,-0.00003132,0.00013994
 ,-0.00006425,0.00071792,-0.00042253,-0.00023466,-0.00256491,-0.0029937
 2,0.00146885,-0.00042520,0.00035776,-0.00001219,0.00002447,0.00038098,
 -0.00041635,-0.00002103,-0.00005965,0.00007119,0.00005350,0.00040596,-
 0.00035994,0.00000277,-0.00016867,-0.00001443,0.00032746,-0.00381074,0
 .00596291,-0.00034279,-0.00268822,0.00317672,0.07793244,-0.12391650,-0
 .15465152,0.00845964,-0.01004037,-0.00616602,0.00000087,0.00003998,0.0
 0007263,-0.00000811,-0.00000385,-0.00001160,0.00000316,0.00001446,0.00
 000160,0.00000194,-0.00000078,0.00000235,0.00000048,0.00000043,0.00000
 065,0.00000068,0.00000322,0.00000408,0.00001216,0.00001401,0.00001747,
 -0.00001672,-0.00001416,-0.00000304,0.00056043,0.00047388,0.00172692,-
 0.00002471,-0.00001765,0.00002884,-0.00014645,-0.00016111,-0.00012459,
 -0.00001286,-0.00001161,0.00002328,0.00001567,-0.00004729,0.00004099,0
 .00000247,0.00000361,-0.00001735,0.00001790,-0.00009969,0.00012365,-0.
 00022800,0.00341804,-0.00272594,-0.08665870,0.13815844,0.15363269,0.00
 010342,0.00035182,0.00030220,0.00025557,-0.00011532,-0.00013509,0.0004
 3009,-0.00053089,-0.00049677,-0.00177889,-0.00208938,-0.00135178,-0.00
 055562,-0.00047432,-0.00041508,-0.00478781,-0.00171242,-0.00076656,-0.
 00984397,0.02078982,0.01959190,0.00109708,0.00188956,0.00130331,0.0001
 5610,-0.00030395,-0.00028378,0.00012910,0.00016839,0.00012978,-0.00005
 970,0.00117353,0.00107029,-0.00043270,-0.00017305,-0.00011134,-0.00002
 144,0.00008596,0.00007872,0.00000018,0.00000250,0.00000196,0.00002079,
 -0.00000925,-0.00000945,-0.00000857,0.00000246,0.00000259,-0.00000067,
 -0.00000563,-0.00000500,-0.00001021,0.00000116,0.00000173,0.00000593,0
 .00000249,0.00000178,-0.00001338,0.00000152,0.00000192,-0.00000465,-0.
 00001304,-0.00001152,-0.00003407,0.00003356,0.00003188,0.00005878,-0.0
 0010587,-0.00009525,-0.11025203,0.07745544,0.07441872,0.01054183,-0.01
 161988,-0.01082512,0.00102706,-0.00092725,-0.00116203,0.00002540,0.000
 01722,0.00003002,-0.00001872,0.00002210,0.00002426,-0.00013711,-0.0001
 7087,-0.00012825,0.00000227,0.00010106,0.00001572,-0.00026285,-0.00093
 774,-0.00080723,-0.00002705,-0.00002003,0.00000517,0.00002475,0.000004
 22,0.00000272,-0.00004940,0.00000409,0.00000326,0.00000259,-0.00000368
 ,-0.00000341,-0.00000138,0.00000124,0.00000125,-0.00000217,-0.00000017
 ,0.00000004,-0.00000272,-0.00000204,-0.00000159,-0.00000704,-0.0000018
 3,-0.00000089,-0.00000178,-0.00001225,-0.00001049,0.11464752,-0.000211
 94,0.00001777,0.00009760,-0.00002122,-0.00001302,0.00016938,0.00092868
 ,-0.00033708,-0.00047115,-0.00347337,0.00129923,-0.00360885,-0.0004468
 5,0.00000204,0.00041289,-0.00042064,0.00344859,-0.00237777,-0.00071135
 ,0.00287754,-0.00130331,-0.00140440,-0.00162591,0.00260415,0.00029530,
 0.00007065,0.00005513,-0.00008292,0.00005715,0.00020765,-0.00025266,0.
 00004391,-0.00015319,0.00004274,0.00008980,-0.00009060,-0.00002391,-0.
 00000912,-0.00001074,0.00001276,0.00002138,0.00002159,-0.00001505,0.00
 000486,0.00000175,0.00000742,-0.00000023,0.00000190,-0.00000010,0.0000
 0110,0.00000113,0.00000648,0.00000076,0.00000056,-0.00000079,-0.000006
 34,-0.00000524,0.00000529,0.00000424,0.00000822,0.00000903,-0.00000233
 ,-0.00000040,0.00000758,-0.00001484,-0.00000707,0.00002073,0.00001844,
 -0.00003048,0.07784528,-0.16602022,-0.12098678,0.01004430,-0.00889316,
 -0.01257034,0.00182943,-0.00103532,0.00227706,-0.00003836,0.00008613,-
 0.00012969,-0.00004843,0.00003863,-0.00000276,-0.00016782,-0.00010015,
 -0.00026923,0.00008789,-0.00053494,0.00046718,0.00027910,0.00027679,0.
 00006038,0.00003887,0.00013593,-0.00015185,-0.00001137,0.00000848,-0.0
 0000039,0.00000723,-0.00002619,0.00002544,-0.00000243,0.00000120,0.000
 00049,0.00000157,-0.00000122,-0.00000177,0.00000257,0.00000021,-0.0000
 0061,0.00000143,0.00000227,0.00000135,0.00000410,0.00000336,-0.0000005
 3,0.,0.00000190,-0.00000264,-0.08324669,0.16987034,-0.00020205,0.00005
 813,-0.00000862,-0.00005093,0.00017597,-0.00003976,0.00080873,-0.00036
 896,-0.00026966,-0.00258968,-0.00370575,0.00247261,-0.00039051,0.00041
 481,-0.00002623,0.00038887,-0.00228732,0.00406679,0.00036035,-0.002808
 71,0.00185288,-0.00164295,0.00237352,-0.00218945,0.00025221,0.00009709
 ,0.00005508,-0.00009501,0.00019006,0.00000813,-0.00020536,-0.00025305,
 0.00002300,0.00008167,-0.00007550,0.00011451,-0.00001955,-0.00001843,-
 0.00001036,0.00001114,0.00002231,0.00001542,-0.00001463,0.00000135,0.0
 0000631,0.00000703,0.00000225,-0.00000142,-0.00000005,0.00000152,0.000
 00120,0.00000648,0.00000094,0.,-0.00000115,-0.00000547,-0.00000523,0.0
 0000529,0.00000848,0.00000186,0.00000822,0.00000115,-0.00000214,0.0000
 0864,-0.00000889,-0.00001608,0.00001799,-0.00002162,0.00003030,0.07476
 741,-0.12095949,-0.15027473,0.00855223,-0.01105353,-0.00611109,0.00130
 365,0.00247007,-0.00160625,-0.00001970,-0.00013359,0.00011603,-0.00003
 882,-0.00000770,0.00004134,-0.00012552,-0.00026902,-0.00001784,0.00000
 395,0.00046626,-0.00064737,0.00028117,0.00014557,0.00029796,0.00005785
 ,-0.00014773,0.00016648,-0.00001122,-0.00000148,0.00000927,0.00000606,
 0.00002566,-0.00003267,-0.00000230,0.00000058,0.00000152,0.00000155,-0
 .00000175,-0.00000104,0.00000250,-0.00000042,0.00000014,0.00000152,0.0
 0000160,0.00000197,0.00000442,-0.00000011,0.00000322,0.00000047,-0.000
 00179,0.00000322,-0.08075406,0.13563747,0.15171573,0.01145033,-0.01249
 788,-0.01164346,-0.00135633,-0.00228975,-0.00137486,-0.00055332,-0.000
 51535,-0.00046002,-0.00501175,-0.00172852,-0.00086832,-0.00008233,0.00
 121022,0.00109944,0.00017194,0.00007610,0.00004345,0.00016431,-0.00030
 383,-0.00029473,-0.00001321,0.00002838,0.00003863,-0.00001092,0.000020
 40,0.00001852,-0.00005861,0.00001245,0.00001557,0.00005472,-0.00007157
 ,-0.00006469,-0.00001119,0.00002318,0.00002101,-0.00000145,-0.00002795
 ,-0.00002483,-0.00001655,0.00000300,0.00000315,0.00000780,-0.00000364,
 -0.00000375,-0.00000325,-0.00000095,-0.00000069,-0.00000075,-0.0000020
 9,-0.00000186,-0.00000501,0.00000082,0.00000104,0.00000281,0.00000186,
 0.00000144,-0.00000723,0.00000007,0.00000060,-0.00000077,-0.00000170,-
 0.00000156,-0.00000917,0.00000846,0.00000817,0.00001431,-0.00001035,-0
 .00001014,0.00147816,0.00154206,0.00107872,-0.00961205,0.02066718,0.01
 941648,-0.11373112,0.08004196,0.07693724,0.00101473,0.00063277,0.00012
 134,0.00036673,-0.00059286,-0.00054178,0.00005796,0.00010437,0.0000080
 5,-0.00044846,0.00000572,0.00005147,-0.00001737,-0.00002959,-0.0000249
 7,-0.00000233,-0.00000232,-0.00000341,0.00000756,-0.00002292,-0.000021
 01,0.,0.00000121,0.00000138,0.00000110,-0.00000052,-0.00000049,-0.0000
 0075,0.00000064,0.00000066,-0.00000104,0.00000002,0.00000012,-0.000001
 12,-0.00000100,-0.00000077,-0.00000242,-0.00000094,-0.00000063,-0.0000
 0011,-0.00000334,-0.00000286,-0.00021453,-0.00089749,-0.00077591,0.116
 38068,0.01102749,-0.00837001,-0.01256194,-0.00350717,0.00230572,-0.005
 07903,-0.00038141,0.00000697,0.00051602,-0.00044597,0.00273674,-0.0016
 9640,-0.00026794,0.00001083,-0.00011464,-0.00001436,0.00007268,0.00022
 666,0.00031087,0.00000719,0.00013118,-0.00002804,0.00000819,-0.0001481
 1,0.00006367,-0.00000368,-0.00000148,-0.00000753,0.00003460,0.00002731
 ,-0.00005860,0.00003470,-0.00000518,0.00001868,-0.00000419,0.00000145,
 -0.00000862,-0.00000412,-0.00000386,0.00000753,0.00000549,0.00001311,-
 0.00001316,0.00000289,0.00000289,0.00000753,0.00000064,0.00000099,0.00
 000040,0.00000055,0.00000093,0.00000527,0.00000024,0.00000038,-0.00000
 090,-0.00000592,-0.00000482,0.00000387,0.00000573,0.00000436,0.0000059
 4,0.00000045,0.00000111,0.00000538,-0.00001023,-0.00000908,0.00000638,
 -0.00000813,-0.00000922,-0.00102516,-0.00086663,0.00181418,-0.00113554
 ,0.00288310,-0.00063652,0.07968917,-0.16571782,-0.12035285,0.00013468,
 -0.00173522,0.00321116,0.00050372,-0.00043212,-0.00060285,0.00011369,-
 0.00054892,0.00053894,-0.00000547,0.00009265,-0.00010786,-0.00000527,0
 .00000968,0.00000545,0.00000952,-0.00000631,0.00001276,-0.00000455,0.0
 0000216,0.00000204,0.00000185,-0.00000024,-0.00000415,-0.00000242,0.00
 000120,0.00000060,0.00000152,-0.00000129,-0.00000173,0.00000267,0.0000
 0009,-0.00000048,0.00000117,0.00000217,0.00000130,0.00000361,0.0000017
 6,0.00000082,-0.00000362,0.00000027,-0.00000095,0.00036741,0.00023737,
 0.00003553,-0.08537629,0.16925077,0.00939861,-0.01091482,-0.00560949,-
 0.00246377,-0.00516427,0.00381205,-0.00034022,0.00052540,-0.00004633,0
 .00027885,-0.00160660,0.00321172,-0.00022269,-0.00021813,-0.00001954,-
 0.00003746,0.00022033,0.00002009,0.00025508,0.00017422,-0.00002583,-0.
 00001184,-0.00015206,0.00004080,0.00005723,0.00000155,-0.00000963,-0.0
 0000230,0.00002591,0.00002799,-0.00005309,-0.00000427,0.00004497,0.000
 01698,0.00000114,-0.00000744,-0.00000755,-0.00000251,-0.00000084,0.000
 00721,0.00001343,0.00000175,-0.00001227,0.00000223,0.00000354,0.000006
 89,0.00000158,-0.00000013,0.00000037,0.00000110,0.00000044,0.00000502,
 0.00000069,-0.00000033,-0.00000103,-0.00000502,-0.00000487,0.00000401,
 0.00000462,0.00000441,0.00000528,0.00000164,-0.00000015,0.00000542,-0.
 00000930,-0.00000920,0.00000482,-0.00000805,-0.00000586,-0.00121751,0.
 00163444,-0.00126752,-0.00008479,-0.00216303,0.00175486,0.07662169,-0.
 12037755,-0.15043474,-0.00032417,0.00317629,-0.00247219,0.00043905,-0.
 00052607,-0.00029884,0.00001639,0.00053959,-0.00067887,0.00004146,-0.0
 0010864,0.00011359,-0.00000322,0.00000715,0.00001062,0.00000718,0.0000
 1359,-0.00000967,-0.00000458,0.00000332,0.00000354,0.00000196,-0.00000
 411,0.00000045,-0.00000219,0.00000047,0.00000129,0.00000145,-0.0000016
 7,-0.00000107,0.00000249,-0.00000029,-0.00000002,0.00000117,0.00000145
 ,0.00000184,0.00000344,0.00000114,0.00000134,-0.00000312,-0.00000097,0
 .00000096,0.00035547,0.00012409,0.00025499,-0.08274573,0.13479200,0.15
 159133\\0.00001510,0.00001538,0.00001270,0.00002404,0.00000129,-0.0000
 0053,-0.00002059,-0.00002085,-0.00001721,0.00001548,0.00003086,0.00002
 652,0.00003272,0.00001510,0.00001122,-0.00001712,-0.00001184,-0.000009
 39,-0.00000390,-0.00001021,-0.00000886,-0.00002107,0.00000152,0.000002
 83,0.00002719,-0.00001155,-0.00001223,-0.00002225,0.00001542,0.0000153
 5,-0.00001409,-0.00001900,-0.00001601,-0.00000256,0.00002628,0.0000236
 8,0.00000846,0.00001956,0.00001691,0.00001130,-0.00000879,-0.00000865,
 -0.00000488,-0.00001074,-0.00000927,-0.00001156,0.00001191,0.00001146,
 -0.00001602,0.00000222,0.00000310,-0.00000222,0.00001070,0.00000973,0.
 00001333,-0.00000633,-0.00000660,-0.00000380,0.00000450,0.00000429,0.0
 0000459,-0.00000223,-0.00000232,-0.00001882,-0.00001160,-0.00000905,0.
 00002320,0.00001328,0.00001026,0.00000011,0.00001038,0.00000928,0.0000
 2862,-0.00000952,-0.00001052,-0.00003402,-0.00000692,-0.00000380,-0.00
 000759,-0.00000028,0.00000028,-0.00000392,-0.00000550,-0.00000464,-0.0
 0000760,-0.00000084,-0.00000022,0.00001680,-0.00000431,-0.00000503,0.0
 0000875,0.00000422,0.00000316,-0.00000659,0.00000125,0.00000158,-0.000
 01783,-0.00001361,-0.00001092,0.00001444,-0.00001078,-0.00001065,-0.00
 001526,-0.00000912,-0.00000709,-0.00000216,-0.00000759,-0.00000664,0.0
 0000482,-0.00000052,-0.00000080,-0.00000323,-0.00000028,-0.00000002,-0
 .00000526,0.00000421,0.00000413,0.00000753,0.00000094,0.00000031,0.000
 00945,-0.00000341,-0.00000371,-0.00000357,-0.00000320,-0.00000261\\\@
 The archive entry for this job was punched.


 WE HAVE SEEN THAT MAN ON THE AVERAGE DOES NOT LIVE ABOVE
 TWO-AND-TWENTY YEARS.  DURING THESE TWO AND TWENTY
 YEARS HE IS LIABLE TO TWO AND TWENTY THOUSAND EVILS,
 MANY OF WHICH ARE INCURABLE.  YET EVEN IN THIS DREADFUL STATE
 MEN STILL STRUT AND POSE ON THE STAGE OF LIFE.
 THEY MAKE LOVE AT THE RISK OF DESTRUCTION,
 INTRIGUE, CARRY ON WAR, AND FORM PROJECTS, JUST AS IF THEY
 WERE TO LIVE IN LUXURY AND HAPPINESS FOR A THOUSAND
 AGES.

                                              -- VOLTAIRE
 Job cpu time:       0 days  1 hours 23 minutes  8.9 seconds.
 Elapsed time:       0 days  0 hours 10 minutes 23.7 seconds.
 File lengths (MBytes):  RWF=    772 Int=      0 D2E=      0 Chk=     15 Scr=      1
 Normal termination of Gaussian 16 at Tue Oct  8 22:21:42 2024.
