 Entering Gaussian System, Link 0=g16
 Initial command:
 /opt/g16/l1.exe "/tmp/Gau-1240762.inp" -scrdir="/tmp/"
 Entering Link 1 = /opt/g16/l1.exe PID=   1240764.
  
 Copyright (c) 1988-2019, Gaussian, Inc.  All Rights Reserved.
  
 This is part of the Gaussian(R) 16 program.  It is based on
 the Gaussian(R) 09 system (copyright 2009, Gaussian, Inc.),
 the Gaussian(R) 03 system (copyright 2003, Gaussian, Inc.),
 the Gaussian(R) 98 system (copyright 1998, Gaussian, Inc.),
 the Gaussian(R) 94 system (copyright 1995, Gaussian, Inc.),
 the Gaussian 92(TM) system (copyright 1992, Gaussian, Inc.),
 the Gaussian 90(TM) system (copyright 1990, Gaussian, Inc.),
 the Gaussian 88(TM) system (copyright 1988, Gaussian, Inc.),
 the Gaussian 86(TM) system (copyright 1986, Carnegie Mellon
 University), and the Gaussian 82(TM) system (copyright 1983,
 Carnegie Mellon University). Gaussian is a federally registered
 trademark of Gaussian, Inc.
  
 This software contains proprietary and confidential information,
 including trade secrets, belonging to Gaussian, Inc.
  
 This software is provided under written license and may be
 used, copied, transmitted, or stored only in accord with that
 written license.
  
 The following legend is applicable only to US Government
 contracts under FAR:
  
                    RESTRICTED RIGHTS LEGEND
  
 Use, reproduction and disclosure by the US Government is
 subject to restrictions as set forth in subparagraphs (a)
 and (c) of the Commercial Computer Software - Restricted
 Rights clause in FAR 52.227-19.
  
 Gaussian, Inc.
 340 Quinnipiac St., Bldg. 40, Wallingford CT 06492
  
  
 ---------------------------------------------------------------
 Warning -- This program may not be used in any manner that
 competes with the business of Gaussian, Inc. or will provide
 assistance to any competitor of Gaussian, Inc.  The licensee
 of this program is prohibited from giving any competitor of
 Gaussian, Inc. access to this program.  By using this program,
 the user acknowledges that Gaussian, Inc. is engaged in the
 business of creating and licensing software in the field of
 computational chemistry and represents and warrants to the
 licensee that it is not a competitor of Gaussian, Inc. and that
 it will not use this program in any manner prohibited above.
 ---------------------------------------------------------------
  

 Cite this work as:
 Gaussian 16, Revision C.01,
 M. J. Frisch, G. W. Trucks, H. B. Schlegel, G. E. Scuseria, 
 M. A. Robb, J. R. Cheeseman, G. Scalmani, V. Barone, 
 G. A. Petersson, H. Nakatsuji, X. Li, M. Caricato, A. V. Marenich, 
 J. Bloino, B. G. Janesko, R. Gomperts, B. Mennucci, H. P. Hratchian, 
 J. V. Ortiz, A. F. Izmaylov, J. L. Sonnenberg, D. Williams-Young, 
 F. Ding, F. Lipparini, F. Egidi, J. Goings, B. Peng, A. Petrone, 
 T. Henderson, D. Ranasinghe, V. G. Zakrzewski, J. Gao, N. Rega, 
 G. Zheng, W. Liang, M. Hada, M. Ehara, K. Toyota, R. Fukuda, 
 J. Hasegawa, M. Ishida, T. Nakajima, Y. Honda, O. Kitao, H. Nakai, 
 T. Vreven, K. Throssell, J. A. Montgomery, Jr., J. E. Peralta, 
 F. Ogliaro, M. J. Bearpark, J. J. Heyd, E. N. Brothers, K. N. Kudin, 
 V. N. Staroverov, T. A. Keith, R. Kobayashi, J. Normand, 
 K. Raghavachari, A. P. Rendell, J. C. Burant, S. S. Iyengar, 
 J. Tomasi, M. Cossi, J. M. Millam, M. Klene, C. Adamo, R. Cammi, 
 J. W. Ochterski, R. L. Martin, K. Morokuma, O. Farkas, 
 J. B. Foresman, and D. J. Fox, Gaussian, Inc., Wallingford CT, 2019.
 
 ******************************************
 Gaussian 16:  ES64L-G16RevC.01  3-Jul-2019
                 8-Oct-2024 
 ******************************************
 %nprocshared=8
 Will use up to    8 processors via shared memory.
 %mem=8800MB
 ----------------------------------------------------------------------
 #N opt freq B3LYP/def2SVPP symm=veryloose em=gd3bj scale=0.961 press=0
 .987
 ----------------------------------------------------------------------
 1/18=20,19=15,26=3,38=1,113=-987000,114=961000/1,3;
 2/9=110,12=2,17=2,18=2,40=1/2;
 3/5=43,7=202,11=2,25=1,30=1,71=1,74=-5,124=41/1,2,3;
 4//1;
 5/5=2,38=5/2;
 6/7=2,8=2,9=2,10=2,28=1/1;
 7//1,2,3,16;
 1/18=20,19=15,26=3/3(2);
 2/9=110/2;
 99//99;
 2/9=110/2;
 3/5=43,7=202,11=2,25=1,30=1,71=1,74=-5,124=41/1,2,3;
 4/5=5,16=3,69=1/1;
 5/5=2,38=5/2;
 7//1,2,3,16;
 1/18=20,19=15,26=3/3(-5);
 2/9=110/2;
 6/7=2,8=2,9=2,10=2,19=2,28=1/1;
 99/9=1/99;
 ------------------------------------
 c1ccc2c(c1)ccc1c3ccccc3c3ccccc3c21_2
 ------------------------------------
 Symbolic Z-matrix:
 Charge =  0 Multiplicity = 1
 C                     4.8696    0.0662    0.3841 
 C                     4.1436    1.2014    0.694 
 C                     2.7484    1.1867    0.5779 
 C                     2.0097    0.0611    0.1187 
 C                     2.7868   -1.104    -0.0848 
 C                     4.1906   -1.0871    0.0116 
 C                     2.1535   -2.304    -0.3511 
 C                     0.7658   -2.3791   -0.3242 
 C                    -0.0694   -1.2526   -0.1374 
 C                    -1.4953   -1.3888   -0.0158 
 C                    -2.1454   -2.6561    0.0635 
 C                    -3.5224   -2.8054    0.2235 
 C                    -4.3122   -1.6825    0.3174 
 C                    -3.7153   -0.4257    0.2403 
 C                    -2.3131   -0.2346    0.0668 
 C                    -1.7199    1.0585   -0.0711 
 C                    -2.4973    2.2526   -0.1166 
 C                    -1.9525    3.5095   -0.3678 
 C                    -0.6046    3.6118   -0.6192 
 C                     0.1852    2.4646   -0.5534 
 C                    -0.3098    1.1772   -0.2044 
 C                     0.553     0.0225   -0.0715 
 H                     5.9523    0.0635    0.4689 
 H                     4.6497    2.0976    1.0427 
 H                     2.2306    2.0799    0.9194 
 H                     4.7676   -1.99     -0.1789 
 H                     2.7237   -3.2158   -0.5143 
 H                     0.3508   -3.3711   -0.4759 
 H                    -1.5788   -3.5819    0.0277 
 H                    -3.9625   -3.7967    0.2843 
 H                    -5.3867   -1.7719    0.4491 
 H                    -4.3922    0.4194    0.3209 
 H                    -3.5747    2.2286    0.0154 
 H                    -2.5914    4.3868   -0.4085 
 H                    -0.1609    4.5681   -0.8807 
 H                     1.2235    2.5912   -0.8507 
 

 GradGradGradGradGradGradGradGradGradGradGradGradGradGradGradGradGradGrad
 Berny optimization.
 Initialization pass.
                           ----------------------------
                           !    Initial Parameters    !
                           ! (Angstroms and Degrees)  !
 --------------------------                            --------------------------
 ! Name  Definition              Value          Derivative Info.                !
 --------------------------------------------------------------------------------
 ! R1    R(1,2)                  1.3827         estimate D2E/DX2                !
 ! R2    R(1,6)                  1.3892         estimate D2E/DX2                !
 ! R3    R(1,23)                 1.086          estimate D2E/DX2                !
 ! R4    R(2,3)                  1.4001         estimate D2E/DX2                !
 ! R5    R(2,24)                 1.0867         estimate D2E/DX2                !
 ! R6    R(3,4)                  1.4225         estimate D2E/DX2                !
 ! R7    R(3,25)                 1.0874         estimate D2E/DX2                !
 ! R8    R(4,5)                  1.4152         estimate D2E/DX2                !
 ! R9    R(4,22)                 1.4696         estimate D2E/DX2                !
 ! R10   R(5,6)                  1.4072         estimate D2E/DX2                !
 ! R11   R(5,7)                  1.3827         estimate D2E/DX2                !
 ! R12   R(6,26)                 1.0883         estimate D2E/DX2                !
 ! R13   R(7,8)                  1.39           estimate D2E/DX2                !
 ! R14   R(7,27)                 1.0877         estimate D2E/DX2                !
 ! R15   R(8,9)                  1.4147         estimate D2E/DX2                !
 ! R16   R(8,28)                 1.086          estimate D2E/DX2                !
 ! R17   R(9,10)                 1.4375         estimate D2E/DX2                !
 ! R18   R(9,22)                 1.4204         estimate D2E/DX2                !
 ! R19   R(10,11)                1.4265         estimate D2E/DX2                !
 ! R20   R(10,15)                1.417          estimate D2E/DX2                !
 ! R21   R(11,12)                1.3943         estimate D2E/DX2                !
 ! R22   R(11,29)                1.086          estimate D2E/DX2                !
 ! R23   R(12,13)                1.376          estimate D2E/DX2                !
 ! R24   R(12,30)                1.0863         estimate D2E/DX2                !
 ! R25   R(13,14)                1.3935         estimate D2E/DX2                !
 ! R26   R(13,31)                1.0862         estimate D2E/DX2                !
 ! R27   R(14,15)                1.4258         estimate D2E/DX2                !
 ! R28   R(14,32)                1.0858         estimate D2E/DX2                !
 ! R29   R(15,16)                1.4293         estimate D2E/DX2                !
 ! R30   R(16,17)                1.4256         estimate D2E/DX2                !
 ! R31   R(16,21)                1.4214         estimate D2E/DX2                !
 ! R32   R(17,18)                1.3927         estimate D2E/DX2                !
 ! R33   R(17,33)                1.0857         estimate D2E/DX2                !
 ! R34   R(18,19)                1.375          estimate D2E/DX2                !
 ! R35   R(18,34)                1.0861         estimate D2E/DX2                !
 ! R36   R(19,20)                1.3943         estimate D2E/DX2                !
 ! R37   R(19,35)                1.0862         estimate D2E/DX2                !
 ! R38   R(20,21)                1.4228         estimate D2E/DX2                !
 ! R39   R(20,36)                1.0874         estimate D2E/DX2                !
 ! R40   R(21,22)                1.4476         estimate D2E/DX2                !
 ! A1    A(2,1,6)              119.0162         estimate D2E/DX2                !
 ! A2    A(2,1,23)             120.531          estimate D2E/DX2                !
 ! A3    A(6,1,23)             120.4075         estimate D2E/DX2                !
 ! A4    A(1,2,3)              119.7374         estimate D2E/DX2                !
 ! A5    A(1,2,24)             120.2966         estimate D2E/DX2                !
 ! A6    A(3,2,24)             119.9578         estimate D2E/DX2                !
 ! A7    A(2,3,4)              123.5424         estimate D2E/DX2                !
 ! A8    A(2,3,25)             116.093          estimate D2E/DX2                !
 ! A9    A(4,3,25)             120.2678         estimate D2E/DX2                !
 ! A10   A(3,4,5)              114.3755         estimate D2E/DX2                !
 ! A11   A(3,4,22)             125.2616         estimate D2E/DX2                !
 ! A12   A(5,4,22)             120.2696         estimate D2E/DX2                !
 ! A13   A(4,5,6)              121.8736         estimate D2E/DX2                !
 ! A14   A(4,5,7)              119.385          estimate D2E/DX2                !
 ! A15   A(6,5,7)              118.7186         estimate D2E/DX2                !
 ! A16   A(1,6,5)              121.0592         estimate D2E/DX2                !
 ! A17   A(1,6,26)             118.46           estimate D2E/DX2                !
 ! A18   A(5,6,26)             120.4599         estimate D2E/DX2                !
 ! A19   A(5,7,8)              120.027          estimate D2E/DX2                !
 ! A20   A(5,7,27)             121.0833         estimate D2E/DX2                !
 ! A21   A(8,7,27)             118.7483         estimate D2E/DX2                !
 ! A22   A(7,8,9)              123.2931         estimate D2E/DX2                !
 ! A23   A(7,8,28)             115.3517         estimate D2E/DX2                !
 ! A24   A(9,8,28)             121.3464         estimate D2E/DX2                !
 ! A25   A(8,9,10)             121.4199         estimate D2E/DX2                !
 ! A26   A(8,9,22)             117.5319         estimate D2E/DX2                !
 ! A27   A(10,9,22)            121.0481         estimate D2E/DX2                !
 ! A28   A(9,10,11)            122.7453         estimate D2E/DX2                !
 ! A29   A(9,10,15)            120.0152         estimate D2E/DX2                !
 ! A30   A(11,10,15)           117.2181         estimate D2E/DX2                !
 ! A31   A(10,11,12)           123.4757         estimate D2E/DX2                !
 ! A32   A(10,11,29)           121.1802         estimate D2E/DX2                !
 ! A33   A(12,11,29)           115.3254         estimate D2E/DX2                !
 ! A34   A(11,12,13)           119.1632         estimate D2E/DX2                !
 ! A35   A(11,12,30)           120.2817         estimate D2E/DX2                !
 ! A36   A(13,12,30)           120.5515         estimate D2E/DX2                !
 ! A37   A(12,13,14)           119.1016         estimate D2E/DX2                !
 ! A38   A(12,13,31)           120.5891         estimate D2E/DX2                !
 ! A39   A(14,13,31)           120.3093         estimate D2E/DX2                !
 ! A40   A(13,14,15)           123.2913         estimate D2E/DX2                !
 ! A41   A(13,14,32)           115.5213         estimate D2E/DX2                !
 ! A42   A(15,14,32)           121.1874         estimate D2E/DX2                !
 ! A43   A(10,15,14)           117.7443         estimate D2E/DX2                !
 ! A44   A(10,15,16)           119.4567         estimate D2E/DX2                !
 ! A45   A(14,15,16)           122.7625         estimate D2E/DX2                !
 ! A46   A(15,16,17)           122.313          estimate D2E/DX2                !
 ! A47   A(15,16,21)           119.7576         estimate D2E/DX2                !
 ! A48   A(17,16,21)           117.9083         estimate D2E/DX2                !
 ! A49   A(16,17,18)           123.2552         estimate D2E/DX2                !
 ! A50   A(16,17,33)           121.248          estimate D2E/DX2                !
 ! A51   A(18,17,33)           115.4709         estimate D2E/DX2                !
 ! A52   A(17,18,19)           118.9208         estimate D2E/DX2                !
 ! A53   A(17,18,34)           120.3743         estimate D2E/DX2                !
 ! A54   A(19,18,34)           120.6471         estimate D2E/DX2                !
 ! A55   A(18,19,20)           119.0416         estimate D2E/DX2                !
 ! A56   A(18,19,35)           120.6631         estimate D2E/DX2                !
 ! A57   A(20,19,35)           120.2886         estimate D2E/DX2                !
 ! A58   A(19,20,21)           123.9858         estimate D2E/DX2                !
 ! A59   A(19,20,36)           115.6046         estimate D2E/DX2                !
 ! A60   A(21,20,36)           120.3056         estimate D2E/DX2                !
 ! A61   A(16,21,20)           116.3425         estimate D2E/DX2                !
 ! A62   A(16,21,22)           121.0706         estimate D2E/DX2                !
 ! A63   A(20,21,22)           122.4763         estimate D2E/DX2                !
 ! A64   A(4,22,9)             117.6406         estimate D2E/DX2                !
 ! A65   A(4,22,21)            125.5736         estimate D2E/DX2                !
 ! A66   A(9,22,21)            116.7851         estimate D2E/DX2                !
 ! D1    D(6,1,2,3)             -2.4785         estimate D2E/DX2                !
 ! D2    D(6,1,2,24)           176.4834         estimate D2E/DX2                !
 ! D3    D(23,1,2,3)           179.9579         estimate D2E/DX2                !
 ! D4    D(23,1,2,24)           -1.0802         estimate D2E/DX2                !
 ! D5    D(2,1,6,5)              1.5568         estimate D2E/DX2                !
 ! D6    D(2,1,6,26)          -176.7878         estimate D2E/DX2                !
 ! D7    D(23,1,6,5)           179.1234         estimate D2E/DX2                !
 ! D8    D(23,1,6,26)            0.7789         estimate D2E/DX2                !
 ! D9    D(1,2,3,4)             -1.6288         estimate D2E/DX2                !
 ! D10   D(1,2,3,25)           174.7951         estimate D2E/DX2                !
 ! D11   D(24,2,3,4)           179.4057         estimate D2E/DX2                !
 ! D12   D(24,2,3,25)           -4.1704         estimate D2E/DX2                !
 ! D13   D(2,3,4,5)              6.2472         estimate D2E/DX2                !
 ! D14   D(2,3,4,22)          -177.2755         estimate D2E/DX2                !
 ! D15   D(25,3,4,5)          -170.0341         estimate D2E/DX2                !
 ! D16   D(25,3,4,22)            6.4432         estimate D2E/DX2                !
 ! D17   D(3,4,5,6)             -7.0983         estimate D2E/DX2                !
 ! D18   D(3,4,5,7)            171.141          estimate D2E/DX2                !
 ! D19   D(22,4,5,6)           176.2319         estimate D2E/DX2                !
 ! D20   D(22,4,5,7)            -5.5288         estimate D2E/DX2                !
 ! D21   D(3,4,22,9)          -161.2663         estimate D2E/DX2                !
 ! D22   D(3,4,22,21)           19.0169         estimate D2E/DX2                !
 ! D23   D(5,4,22,9)            15.0182         estimate D2E/DX2                !
 ! D24   D(5,4,22,21)         -164.6986         estimate D2E/DX2                !
 ! D25   D(4,5,6,1)              3.5424         estimate D2E/DX2                !
 ! D26   D(4,5,6,26)          -178.1461         estimate D2E/DX2                !
 ! D27   D(7,5,6,1)           -174.7083         estimate D2E/DX2                !
 ! D28   D(7,5,6,26)             3.6033         estimate D2E/DX2                !
 ! D29   D(4,5,7,8)             -4.5235         estimate D2E/DX2                !
 ! D30   D(4,5,7,27)           179.8529         estimate D2E/DX2                !
 ! D31   D(6,5,7,8)            173.7716         estimate D2E/DX2                !
 ! D32   D(6,5,7,27)            -1.852          estimate D2E/DX2                !
 ! D33   D(5,7,8,9)              5.1596         estimate D2E/DX2                !
 ! D34   D(5,7,8,28)          -175.913          estimate D2E/DX2                !
 ! D35   D(27,7,8,9)          -179.1152         estimate D2E/DX2                !
 ! D36   D(27,7,8,28)           -0.1878         estimate D2E/DX2                !
 ! D37   D(7,8,9,10)          -175.2564         estimate D2E/DX2                !
 ! D38   D(7,8,9,22)             4.6306         estimate D2E/DX2                !
 ! D39   D(28,8,9,10)            5.8785         estimate D2E/DX2                !
 ! D40   D(28,8,9,22)         -174.2344         estimate D2E/DX2                !
 ! D41   D(8,9,10,11)            6.6088         estimate D2E/DX2                !
 ! D42   D(8,9,10,15)         -175.1248         estimate D2E/DX2                !
 ! D43   D(22,9,10,11)        -173.2743         estimate D2E/DX2                !
 ! D44   D(22,9,10,15)           4.9921         estimate D2E/DX2                !
 ! D45   D(8,9,22,4)           -14.176          estimate D2E/DX2                !
 ! D46   D(8,9,22,21)          165.5661         estimate D2E/DX2                !
 ! D47   D(10,9,22,4)          165.7115         estimate D2E/DX2                !
 ! D48   D(10,9,22,21)         -14.5464         estimate D2E/DX2                !
 ! D49   D(9,10,11,12)         177.9272         estimate D2E/DX2                !
 ! D50   D(9,10,11,29)          -0.4227         estimate D2E/DX2                !
 ! D51   D(15,10,11,12)         -0.3847         estimate D2E/DX2                !
 ! D52   D(15,10,11,29)       -178.7347         estimate D2E/DX2                !
 ! D53   D(9,10,15,14)        -177.5331         estimate D2E/DX2                !
 ! D54   D(9,10,15,16)           4.6011         estimate D2E/DX2                !
 ! D55   D(11,10,15,14)          0.8272         estimate D2E/DX2                !
 ! D56   D(11,10,15,16)       -177.0385         estimate D2E/DX2                !
 ! D57   D(10,11,12,13)         -0.2808         estimate D2E/DX2                !
 ! D58   D(10,11,12,30)       -179.5937         estimate D2E/DX2                !
 ! D59   D(29,11,12,13)        178.1575         estimate D2E/DX2                !
 ! D60   D(29,11,12,30)         -1.1554         estimate D2E/DX2                !
 ! D61   D(11,12,13,14)          0.4601         estimate D2E/DX2                !
 ! D62   D(11,12,13,31)       -179.5861         estimate D2E/DX2                !
 ! D63   D(30,12,13,14)        179.7711         estimate D2E/DX2                !
 ! D64   D(30,12,13,31)         -0.2751         estimate D2E/DX2                !
 ! D65   D(12,13,14,15)          0.0203         estimate D2E/DX2                !
 ! D66   D(12,13,14,32)        179.9873         estimate D2E/DX2                !
 ! D67   D(31,13,14,15)       -179.9336         estimate D2E/DX2                !
 ! D68   D(31,13,14,32)          0.0333         estimate D2E/DX2                !
 ! D69   D(13,14,15,10)         -0.6846         estimate D2E/DX2                !
 ! D70   D(13,14,15,16)        177.1055         estimate D2E/DX2                !
 ! D71   D(32,14,15,10)        179.3502         estimate D2E/DX2                !
 ! D72   D(32,14,15,16)         -2.8597         estimate D2E/DX2                !
 ! D73   D(10,15,16,17)        174.331          estimate D2E/DX2                !
 ! D74   D(10,15,16,21)         -3.963          estimate D2E/DX2                !
 ! D75   D(14,15,16,17)         -3.4228         estimate D2E/DX2                !
 ! D76   D(14,15,16,21)        178.2833         estimate D2E/DX2                !
 ! D77   D(15,16,17,18)       -174.1584         estimate D2E/DX2                !
 ! D78   D(15,16,17,33)          3.9083         estimate D2E/DX2                !
 ! D79   D(21,16,17,18)          4.1656         estimate D2E/DX2                !
 ! D80   D(21,16,17,33)       -177.7676         estimate D2E/DX2                !
 ! D81   D(15,16,21,20)        170.1152         estimate D2E/DX2                !
 ! D82   D(15,16,21,22)         -6.1518         estimate D2E/DX2                !
 ! D83   D(17,16,21,20)         -8.2532         estimate D2E/DX2                !
 ! D84   D(17,16,21,22)        175.4797         estimate D2E/DX2                !
 ! D85   D(16,17,18,19)          1.705          estimate D2E/DX2                !
 ! D86   D(16,17,18,34)        178.9583         estimate D2E/DX2                !
 ! D87   D(33,17,18,19)       -176.4643         estimate D2E/DX2                !
 ! D88   D(33,17,18,34)          0.789          estimate D2E/DX2                !
 ! D89   D(17,18,19,20)         -2.9672         estimate D2E/DX2                !
 ! D90   D(17,18,19,35)        176.0882         estimate D2E/DX2                !
 ! D91   D(34,18,19,20)        179.7872         estimate D2E/DX2                !
 ! D92   D(34,18,19,35)         -1.1574         estimate D2E/DX2                !
 ! D93   D(18,19,20,21)         -1.6991         estimate D2E/DX2                !
 ! D94   D(18,19,20,36)        174.5919         estimate D2E/DX2                !
 ! D95   D(35,19,20,21)        179.2418         estimate D2E/DX2                !
 ! D96   D(35,19,20,36)         -4.4671         estimate D2E/DX2                !
 ! D97   D(19,20,21,16)          7.4168         estimate D2E/DX2                !
 ! D98   D(19,20,21,22)       -176.3734         estimate D2E/DX2                !
 ! D99   D(36,20,21,16)       -168.7088         estimate D2E/DX2                !
 ! D100  D(36,20,21,22)          7.501          estimate D2E/DX2                !
 ! D101  D(16,21,22,4)        -165.0878         estimate D2E/DX2                !
 ! D102  D(16,21,22,9)          15.1932         estimate D2E/DX2                !
 ! D103  D(20,21,22,4)          18.878          estimate D2E/DX2                !
 ! D104  D(20,21,22,9)        -160.841          estimate D2E/DX2                !
 --------------------------------------------------------------------------------
 Trust Radius=3.00D-01 FncErr=1.00D-07 GrdErr=1.00D-06 EigMax=2.50D+02 EigMin=1.00D-04
 Number of steps in this run=    216 maximum allowed number of steps=    216.
 GradGradGradGradGradGradGradGradGradGradGradGradGradGradGradGradGradGrad

                          Input orientation:                          
 ---------------------------------------------------------------------
 Center     Atomic      Atomic             Coordinates (Angstroms)
 Number     Number       Type             X           Y           Z
 ---------------------------------------------------------------------
      1          6           0        4.869600    0.066200    0.384100
      2          6           0        4.143600    1.201400    0.694000
      3          6           0        2.748400    1.186700    0.577900
      4          6           0        2.009700    0.061100    0.118700
      5          6           0        2.786800   -1.104000   -0.084800
      6          6           0        4.190600   -1.087100    0.011600
      7          6           0        2.153500   -2.304000   -0.351100
      8          6           0        0.765800   -2.379100   -0.324200
      9          6           0       -0.069400   -1.252600   -0.137400
     10          6           0       -1.495300   -1.388800   -0.015800
     11          6           0       -2.145400   -2.656100    0.063500
     12          6           0       -3.522400   -2.805400    0.223500
     13          6           0       -4.312200   -1.682500    0.317400
     14          6           0       -3.715300   -0.425700    0.240300
     15          6           0       -2.313100   -0.234600    0.066800
     16          6           0       -1.719900    1.058500   -0.071100
     17          6           0       -2.497300    2.252600   -0.116600
     18          6           0       -1.952500    3.509500   -0.367800
     19          6           0       -0.604600    3.611800   -0.619200
     20          6           0        0.185200    2.464600   -0.553400
     21          6           0       -0.309800    1.177200   -0.204400
     22          6           0        0.553000    0.022500   -0.071500
     23          1           0        5.952300    0.063500    0.468900
     24          1           0        4.649700    2.097600    1.042700
     25          1           0        2.230600    2.079900    0.919400
     26          1           0        4.767600   -1.990000   -0.178900
     27          1           0        2.723700   -3.215800   -0.514300
     28          1           0        0.350800   -3.371100   -0.475900
     29          1           0       -1.578800   -3.581900    0.027700
     30          1           0       -3.962500   -3.796700    0.284300
     31          1           0       -5.386700   -1.771900    0.449100
     32          1           0       -4.392200    0.419400    0.320900
     33          1           0       -3.574700    2.228600    0.015400
     34          1           0       -2.591400    4.386800   -0.408500
     35          1           0       -0.160900    4.568100   -0.880700
     36          1           0        1.223500    2.591200   -0.850700
 ---------------------------------------------------------------------
                    Distance matrix (angstroms):
                    1          2          3          4          5
     1  C    0.000000
     2  C    1.382676   0.000000
     3  C    2.406775   1.400099   0.000000
     4  C    2.872193   2.486922   1.422504   0.000000
     5  C    2.434603   2.786091   2.384943   1.415187   0.000000
     6  C    1.389208   2.388537   2.751509   2.467014   1.407208
     7  C    3.679071   4.164200   3.660865   2.415593   1.382745
     8  C    4.829322   5.026554   4.178447   2.774531   2.401590
     9  C    5.138571   4.945979   3.794975   2.472661   2.860547
    10  C    6.541322   6.245810   4.999467   3.795435   4.292115
    11  C    7.531529   7.404685   6.243476   4.964985   5.172775
    12  C    8.871164   8.662758   7.442136   6.231528   6.541851
    13  C    9.347077   8.941994   7.625762   6.560948   7.133879
    14  C    8.600183   8.038383   6.670324   5.746946   6.545463
    15  C    7.195995   6.644129   5.282054   4.333213   5.175695
    16  C    6.679325   5.914933   4.517006   3.865326   4.998694
    17  C    7.700796   6.772270   5.397763   5.017080   6.260151
    18  C    7.678718   6.604330   5.328059   5.275147   6.620078
    19  C    6.598845   5.484517   4.307757   4.470630   5.833176
    20  C    5.345543   4.338273   3.079426   3.091493   4.441038
    21  C    5.329807   4.543179   3.156687   2.594254   3.848001
    22  C    4.340797   3.855931   2.568436   1.469572   2.501808
    23  H    1.086019   2.148693   3.396827   3.958123   3.419069
    24  H    2.146787   1.086694   2.158870   3.459871   3.871937
    25  H    3.362418   2.117106   1.087449   2.182996   3.384523
    26  H    2.134322   3.366952   3.839445   3.449868   2.171962
    27  H    4.022876   4.794555   4.536024   3.412998   2.155957
    28  H    5.742315   6.054895   5.256664   3.858173   3.350641
    29  H    7.417379   7.487975   6.462734   5.114398   5.021066
    30  H    9.640433   9.531931   8.364010   7.111766   7.275982
    31  H   10.419910   9.986346   8.657353   7.627305   8.218105
    32  H    9.268748   8.579663   7.186304   6.415106   7.350060
    33  H    8.724570   7.815868   6.433005   5.991181   7.182266
    34  H    8.658078   7.531434   6.302943   6.337171   7.692769
    35  H    6.868242   5.687097   4.693123   5.101309   6.441670
    36  H    4.603738   3.583940   2.517705   2.821215   4.084729
                    6          7          8          9         10
     6  C    0.000000
     7  C    2.400453   0.000000
     8  C    3.675769   1.389991   0.000000
     9  C    4.265817   2.468278   1.414728   0.000000
    10  C    5.693965   3.776739   2.487645   1.437542   0.000000
    11  C    6.527584   4.333175   2.949937   2.513951   1.426523
    12  C    7.904924   5.726902   4.344003   3.803241   2.484583
    13  C    8.529104   6.529811   5.165558   4.288707   2.851703
    14  C    7.936813   6.190362   4.920842   3.757527   2.433423
    15  C    6.559567   4.940402   3.772451   2.472289   1.416968
    16  C    6.288438   5.136928   4.249689   2.840727   2.458207
    17  C    7.476499   6.515177   5.669529   4.263984   3.778089
    18  C    7.681820   7.117324   6.485882   5.126085   4.932168
    19  C    6.743257   6.532663   6.152715   4.917414   5.115021
    20  C    5.383031   5.162817   4.883755   3.749060   4.238135
    21  C    5.042550   4.267098   3.717329   2.442582   2.832902
    22  C    3.803978   2.837671   2.424216   1.420424   2.488052
    23  H    2.153274   4.550641   5.787494   6.193593   7.603345
    24  H    3.378795   5.248597   6.082264   5.906469   7.143979
    25  H    3.833483   4.564942   4.855395   4.184780   5.175791
    26  H    1.088323   2.638516   4.023296   4.893061   6.293803
    27  H    2.638130   1.087723   2.137657   3.434766   4.624542
    28  H    4.494260   2.098572   1.085957   2.186136   2.747597
    29  H    6.285719   3.963153   2.658517   2.780501   2.195120
    30  H    8.595891   6.327507   4.973599   4.669743   3.460508
    31  H    9.611713   7.601188   6.230565   5.374694   3.937752
    32  H    8.719499   7.121424   5.903619   4.657491   3.431470
    33  H    8.443564   7.313758   6.339256   4.942593   4.172584
    34  H    8.725571   8.202693   7.553496   6.183592   5.891791
    35  H    7.191178   7.270673   7.030793   5.868681   6.165495
    36  H    4.803867   5.007742   5.019021   4.117668   4.891762
                   11         12         13         14         15
    11  C    0.000000
    12  C    1.394281   0.000000
    13  C    2.389013   1.376047   0.000000
    14  C    2.733227   2.387565   1.393478   0.000000
    15  C    2.427302   2.845343   2.481051   1.425758   0.000000
    16  C    3.741313   4.273818   3.792629   2.506280   1.429339
    17  C    4.924592   5.172027   4.355138   2.963814   2.500746
    18  C    6.183676   6.533926   5.744088   4.354658   3.786449
    19  C    6.490510   7.099588   6.530936   5.168810   4.264313
    20  C    5.659844   6.490206   6.179267   4.919115   3.729857
    21  C    4.258566   5.134686   4.946652   3.790050   2.465753
    22  C    3.804535   4.969198   5.169955   4.303079   2.880930
    23  H    8.551802   9.902563  10.413041   9.682668   8.280543
    24  H    8.350442   9.565235   9.753505   8.774059   7.407572
    25  H    6.504740   7.579409   7.571413   6.487907   5.170014
    26  H    6.949246   8.339718   9.098551   8.636108   7.299186
    27  H    4.935104   6.302900   7.248905   7.057960   5.881716
    28  H    2.652017   3.976287   5.022376   5.071636   4.150725
    29  H    1.086012   2.102111   3.341126   3.817254   3.427119
    30  H    2.156751   1.086306   2.143182   3.380338   3.931461
    31  H    3.381793   2.143509   1.086226   2.156254   3.457812
    32  H    3.817468   3.341463   2.103425   1.085764   2.194297
    33  H    5.089745   5.038571   3.991468   2.667519   2.767965
    34  H    7.072775   7.279693   6.350156   4.984401   4.654106
    35  H    7.551081   8.178474   7.598601   6.231247   5.347490
    36  H    6.302333   7.266413   7.090342   5.889288   4.618928
                   16         17         18         19         20
    16  C    0.000000
    17  C    1.425586   0.000000
    18  C    2.479826   1.392733   0.000000
    19  C    2.839656   2.383767   1.374955   0.000000
    20  C    2.416431   2.726086   2.386635   1.394339   0.000000
    21  C    1.421352   2.439129   2.857409   2.487216   1.422753
    22  C    2.497873   3.778850   4.304009   3.810917   2.516219
    23  H    7.755274   8.748183   8.663766   7.534410   6.330073
    24  H    6.549205   7.242072   6.897247   5.715101   4.755416
    25  H    4.198904   4.843156   4.604233   3.571046   2.549666
    26  H    7.168865   8.413222   8.685616   7.773967   6.401726
    27  H    6.181557   7.571024   8.192556   7.596361   6.221933
    28  H    4.906426   6.314014   7.256689   7.049412   5.838564
    29  H    4.643596   5.908118   7.112245   7.288132   6.325309
    30  H    5.359900   6.237112   7.605649   8.183989   7.557052
    31  H    4.661244   4.986507   6.352499   7.279696   7.070998
    32  H    2.775482   2.672578   3.996894   5.041936   5.089188
    33  H    2.194744   1.085721   2.102161   3.337282   3.809997
    34  H    3.457012   2.156124   1.086050   2.142987   3.380141
    35  H    3.924694   3.377004   2.143252   1.086168   2.156762
    36  H    3.408893   3.807612   3.341174   2.106458   1.087420
                   21         22         23         24         25
    21  C    0.000000
    22  C    1.447556   0.000000
    23  H    6.395902   5.426431   0.000000
    24  H    5.196060   4.725509   2.482655   0.000000
    25  H    2.920860   2.833570   4.256744   2.422305   0.000000
    26  H    5.984296   4.671675   2.457645   4.267866   4.920032
    27  H    5.347580   3.923595   4.705778   5.862247   5.508455
    28  H    4.604035   3.423587   6.638217   7.119927   5.932446
    29  H    4.930848   4.188808   8.378608   8.490062   6.882052
    30  H    6.190374   5.924747  10.641357  10.463648   8.561090
    31  H    5.907552   6.226631  11.486601  10.772869   8.548731
    32  H    4.185235   4.976596  10.351679   9.224603   6.853973
    33  H    3.437052   4.681061   9.780442   8.289346   5.877145
    34  H    3.943208   5.389614   9.615382   7.731749   5.507884
    35  H    3.460889   4.671931   7.712591   5.739748   3.892399
    36  H    2.183600   2.766757   5.521971   3.945561   2.099746
                   26         27         28         29         30
    26  H    0.000000
    27  H    2.406783   0.000000
    28  H    4.637216   2.378287   0.000000
    29  H    6.546268   4.351931   2.005344   0.000000
    30  H    8.927114   6.758733   4.400409   2.407075   0.000000
    31  H   10.176039   8.294069   6.027601   4.237190   2.480992
    32  H    9.484563   8.034194   6.123629   4.900162   4.238099
    33  H    9.350311   8.342177   6.856206   6.143751   6.043752
    34  H    9.740184   9.276907   8.297355   8.044614   8.326437
    35  H    8.233548   8.309288   7.965965   8.322147   9.261710
    36  H    5.830896   6.007080   6.037475   6.836054   8.305907
                   31         32         33         34         35
    31  H    0.000000
    32  H    2.409826   0.000000
    33  H    4.413099   2.008691   0.000000
    34  H    6.817534   4.417598   2.409232   0.000000
    35  H    8.323038   6.046441   4.234417   2.482574   0.000000
    36  H    8.026261   6.133959   4.889206   4.239479   2.413627
                   36
    36  H    0.000000
 Stoichiometry    C22H14
 Framework group  C1[X(C22H14)]
 Deg. of freedom   102
 Full point group                 C1      NOp   1
 Largest Abelian subgroup         C1      NOp   1
 Largest concise Abelian subgroup C1      NOp   1
                         Standard orientation:                         
 ---------------------------------------------------------------------
 Center     Atomic      Atomic             Coordinates (Angstroms)
 Number     Number       Type             X           Y           Z
 ---------------------------------------------------------------------
      1          6           0        4.879724   -0.257947    0.283004
      2          6           0        4.239808    0.909005    0.657867
      3          6           0        2.844857    0.994091    0.573315
      4          6           0        2.021507   -0.057371    0.083377
      5          6           0        2.712463   -1.262306   -0.187667
      6          6           0        4.115750   -1.344909   -0.122895
      7          6           0        1.992984   -2.403621   -0.490543
      8          6           0        0.604219   -2.385584   -0.435026
      9          6           0       -0.147675   -1.214443   -0.180982
     10          6           0       -1.576849   -1.258913   -0.032619
     11          6           0       -2.310805   -2.481489    0.007198
     12          6           0       -3.691338   -2.544034    0.192232
     13          6           0       -4.400052   -1.375440    0.352288
     14          6           0       -3.719838   -0.159821    0.315441
     15          6           0       -2.311567   -0.056723    0.118136
     16          6           0       -1.633762    1.198023    0.022201
     17          6           0       -2.328000    2.442922    0.045790
     18          6           0       -1.703224    3.669891   -0.163751
     19          6           0       -0.356774    3.691615   -0.441423
     20          6           0        0.353462    2.491722   -0.443010
     21          6           0       -0.221784    1.226641   -0.138236
     22          6           0        0.562089    0.011348   -0.074800
     23          1           0        5.961156   -0.337802    0.342724
     24          1           0        4.813179    1.752490    1.032946
     25          1           0        2.396604    1.904323    0.964587
     26          1           0        4.625402   -2.275516   -0.365120
     27          1           0        2.495787   -3.343848   -0.705726
     28          1           0        0.119067   -3.339463   -0.619535
     29          1           0       -1.810009   -3.441073   -0.081253
     30          1           0       -4.197231   -3.504934    0.220577
     31          1           0       -5.475309   -1.397536    0.504676
     32          1           0       -4.335302    0.724821    0.447713
     33          1           0       -3.401648    2.486194    0.201347
     34          1           0       -2.280997    4.589428   -0.152128
     35          1           0        0.146294    4.626283   -0.671814
     36          1           0        1.391859    2.560691   -0.758376
 ---------------------------------------------------------------------
 Rotational constants (GHZ):           0.4742142           0.2450524           0.1646962
 Standard basis: def2SVPP (5D, 7F)
 There are   358 symmetry adapted cartesian basis functions of A   symmetry.
 There are   336 symmetry adapted basis functions of A   symmetry.
   336 basis functions,   606 primitive gaussians,   358 cartesian basis functions
    73 alpha electrons       73 beta electrons
       nuclear repulsion energy      1578.9298354939 Hartrees.
 NAtoms=   36 NActive=   36 NUniq=   36 SFac= 1.00D+00 NAtFMM=   60 NAOKFM=F Big=F
 Integral buffers will be    131072 words long.
 Raffenetti 2 integral format.
 Two-electron integral symmetry is turned on.
 Nuclear repulsion after empirical dispersion term =     1578.8355947621 Hartrees.
 One-electron integrals computed using PRISM.
   1 Symmetry operations used in ECPInt.
 ECPInt:  NShTT=   12880 NPrTT=   51688 LenC2=   11970 LenP2D=   32804.
 LDataN:  DoStor=T MaxTD1= 4 Len=   56
 NBasis=   336 RedAO= T EigKep=  1.76D-04  NBF=   336
 NBsUse=   336 1.00D-06 EigRej= -1.00D+00 NBFU=   336
 ExpMin= 1.22D-01 ExpMax= 1.24D+03 ExpMxC= 1.86D+02 IAcc=3 IRadAn=         5 AccDes= 0.00D+00
 Harris functional with IExCor=  402 and IRadAn=       5 diagonalized for initial guess.
 HarFok:  IExCor=  402 AccDes= 0.00D+00 IRadAn=         5 IDoV= 1 UseB2=F ITyADJ=14
 ICtDFT=  3500011 ScaDFX=  1.000000  1.000000  1.000000  1.000000
 FoFCou: FMM=F IPFlag=           0 FMFlag=      100000 FMFlg1=           0
         NFxFlg=           0 DoJE=T BraDBF=F KetDBF=T FulRan=T
         wScrn=  0.000000 ICntrl=       500 IOpCl=  0 I1Cent=   200000004 NGrid=           0
         NMat0=    1 NMatS0=      1 NMatT0=    0 NMatD0=    1 NMtDS0=    0 NMtDT0=    0
 Petite list used in FoFCou.
 Requested convergence on RMS density matrix=1.00D-08 within 128 cycles.
 Requested convergence on MAX density matrix=1.00D-06.
 Requested convergence on             energy=1.00D-06.
 No special actions if energy rises.
 Integral accuracy reduced to 1.0D-05 until final iterations.
 Initial convergence to 1.0D-05 achieved.  Increase integral accuracy.
 SCF Done:  E(RB3LYP) =  -846.262279050     A.U. after   15 cycles
            NFock= 15  Conv=0.37D-08     -V/T= 2.0107

 **********************************************************************

            Population analysis using the SCF Density.

 **********************************************************************

 Orbital symmetries:
       Occupied  (A) (A) (A) (A) (A) (A) (A) (A) (A) (A) (A) (A)
                 (A) (A) (A) (A) (A) (A) (A) (A) (A) (A) (A) (A)
                 (A) (A) (A) (A) (A) (A) (A) (A) (A) (A) (A) (A)
                 (A) (A) (A) (A) (A) (A) (A) (A) (A) (A) (A) (A)
                 (A) (A) (A) (A) (A) (A) (A) (A) (A) (A) (A) (A)
                 (A) (A) (A) (A) (A) (A) (A) (A) (A) (A) (A) (A)
                 (A)
       Virtual   (A) (A) (A) (A) (A) (A) (A) (A) (A) (A) (A) (A)
                 (A) (A) (A) (A) (A) (A) (A) (A) (A) (A) (A) (A)
                 (A) (A) (A) (A) (A) (A) (A) (A) (A) (A) (A) (A)
                 (A) (A) (A) (A) (A) (A) (A) (A) (A) (A) (A) (A)
                 (A) (A) (A) (A) (A) (A) (A) (A) (A) (A) (A) (A)
                 (A) (A) (A) (A) (A) (A) (A) (A) (A) (A) (A) (A)
                 (A) (A) (A) (A) (A) (A) (A) (A) (A) (A) (A) (A)
                 (A) (A) (A) (A) (A) (A) (A) (A) (A) (A) (A) (A)
                 (A) (A) (A) (A) (A) (A) (A) (A) (A) (A) (A) (A)
                 (A) (A) (A) (A) (A) (A) (A) (A) (A) (A) (A) (A)
                 (A) (A) (A) (A) (A) (A) (A) (A) (A) (A) (A) (A)
                 (A) (A) (A) (A) (A) (A) (A) (A) (A) (A) (A) (A)
                 (A) (A) (A) (A) (A) (A) (A) (A) (A) (A) (A) (A)
                 (A) (A) (A) (A) (A) (A) (A) (A) (A) (A) (A) (A)
                 (A) (A) (A) (A) (A) (A) (A) (A) (A) (A) (A) (A)
                 (A) (A) (A) (A) (A) (A) (A) (A) (A) (A) (A) (A)
                 (A) (A) (A) (A) (A) (A) (A) (A) (A) (A) (A) (A)
                 (A) (A) (A) (A) (A) (A) (A) (A) (A) (A) (A) (A)
                 (A) (A) (A) (A) (A) (A) (A) (A) (A) (A) (A) (A)
                 (A) (A) (A) (A) (A) (A) (A) (A) (A) (A) (A) (A)
                 (A) (A) (A) (A) (A) (A) (A) (A) (A) (A) (A) (A)
                 (A) (A) (A) (A) (A) (A) (A) (A) (A) (A) (A)
 The electronic state is 1-A.
 Alpha  occ. eigenvalues --  -10.20891 -10.20527 -10.20415 -10.20304 -10.20269
 Alpha  occ. eigenvalues --  -10.20193 -10.20134 -10.19359 -10.19149 -10.19077
 Alpha  occ. eigenvalues --  -10.19029 -10.19011 -10.18904 -10.18859 -10.18852
 Alpha  occ. eigenvalues --  -10.18836 -10.18813 -10.18805 -10.18738 -10.18734
 Alpha  occ. eigenvalues --  -10.18723 -10.18645  -0.88989  -0.86561  -0.84552
 Alpha  occ. eigenvalues --   -0.82375  -0.79174  -0.77493  -0.76561  -0.73971
 Alpha  occ. eigenvalues --   -0.72464  -0.71755  -0.70659  -0.64202  -0.63533
 Alpha  occ. eigenvalues --   -0.62829  -0.60702  -0.59066  -0.58618  -0.55639
 Alpha  occ. eigenvalues --   -0.53827  -0.51788  -0.51409  -0.49927  -0.48831
 Alpha  occ. eigenvalues --   -0.47401  -0.46746  -0.45135  -0.44195  -0.43715
 Alpha  occ. eigenvalues --   -0.42954  -0.42617  -0.42323  -0.41961  -0.41387
 Alpha  occ. eigenvalues --   -0.39797  -0.39201  -0.38697  -0.37417  -0.36979
 Alpha  occ. eigenvalues --   -0.36343  -0.35779  -0.34999  -0.34160  -0.33105
 Alpha  occ. eigenvalues --   -0.32450  -0.30453  -0.28999  -0.28019  -0.25775
 Alpha  occ. eigenvalues --   -0.23769  -0.22449  -0.20629
 Alpha virt. eigenvalues --   -0.06376  -0.04699  -0.03762  -0.01454   0.01515
 Alpha virt. eigenvalues --    0.02632   0.04453   0.06115   0.06576   0.06789
 Alpha virt. eigenvalues --    0.08354   0.09052   0.09285   0.10887   0.11475
 Alpha virt. eigenvalues --    0.12595   0.13052   0.13516   0.14489   0.15696
 Alpha virt. eigenvalues --    0.16234   0.17264   0.19399   0.20798   0.21559
 Alpha virt. eigenvalues --    0.22509   0.24056   0.24882   0.25547   0.26606
 Alpha virt. eigenvalues --    0.26994   0.27927   0.28101   0.28518   0.29251
 Alpha virt. eigenvalues --    0.30348   0.30596   0.31043   0.31996   0.32466
 Alpha virt. eigenvalues --    0.33628   0.34845   0.34888   0.35869   0.36005
 Alpha virt. eigenvalues --    0.37114   0.38485   0.38908   0.39787   0.40656
 Alpha virt. eigenvalues --    0.41510   0.41916   0.42453   0.43268   0.44405
 Alpha virt. eigenvalues --    0.45254   0.45376   0.45946   0.46351   0.46883
 Alpha virt. eigenvalues --    0.47662   0.47963   0.48276   0.48360   0.48772
 Alpha virt. eigenvalues --    0.48982   0.49825   0.50202   0.51112   0.51758
 Alpha virt. eigenvalues --    0.51984   0.52397   0.53962   0.54067   0.55165
 Alpha virt. eigenvalues --    0.55630   0.56530   0.56925   0.58598   0.58984
 Alpha virt. eigenvalues --    0.59894   0.61236   0.62332   0.63881   0.64385
 Alpha virt. eigenvalues --    0.64734   0.65720   0.66409   0.67240   0.67878
 Alpha virt. eigenvalues --    0.68027   0.68301   0.68609   0.68951   0.69536
 Alpha virt. eigenvalues --    0.69793   0.70222   0.70517   0.71276   0.71821
 Alpha virt. eigenvalues --    0.72937   0.73623   0.73855   0.74684   0.74847
 Alpha virt. eigenvalues --    0.75319   0.76007   0.76306   0.77242   0.78352
 Alpha virt. eigenvalues --    0.79482   0.79702   0.80376   0.81018   0.81927
 Alpha virt. eigenvalues --    0.82879   0.83396   0.83999   0.84381   0.86183
 Alpha virt. eigenvalues --    0.86804   0.88523   0.89795   0.90152   0.91218
 Alpha virt. eigenvalues --    0.94759   0.95596   0.97130   0.98205   1.02256
 Alpha virt. eigenvalues --    1.07383   1.08320   1.09416   1.10960   1.12355
 Alpha virt. eigenvalues --    1.13541   1.14732   1.15693   1.18785   1.20592
 Alpha virt. eigenvalues --    1.23470   1.24128   1.24512   1.24802   1.26885
 Alpha virt. eigenvalues --    1.28942   1.29416   1.31252   1.31982   1.32363
 Alpha virt. eigenvalues --    1.35368   1.36649   1.39246   1.41010   1.42964
 Alpha virt. eigenvalues --    1.43747   1.44037   1.45600   1.46184   1.47421
 Alpha virt. eigenvalues --    1.47576   1.48967   1.49395   1.49785   1.50482
 Alpha virt. eigenvalues --    1.51067   1.52139   1.52945   1.54093   1.57016
 Alpha virt. eigenvalues --    1.64559   1.67649   1.68600   1.70665   1.71995
 Alpha virt. eigenvalues --    1.73465   1.74520   1.75099   1.76458   1.76683
 Alpha virt. eigenvalues --    1.79149   1.79701   1.82121   1.83271   1.83821
 Alpha virt. eigenvalues --    1.84694   1.85444   1.85602   1.86447   1.88235
 Alpha virt. eigenvalues --    1.91625   1.93037   1.93091   1.94302   1.98568
 Alpha virt. eigenvalues --    1.99349   2.02626   2.03159   2.04881   2.05245
 Alpha virt. eigenvalues --    2.06267   2.07250   2.07746   2.08865   2.11053
 Alpha virt. eigenvalues --    2.12178   2.13310   2.14025   2.16548   2.18871
 Alpha virt. eigenvalues --    2.19583   2.20090   2.21593   2.22373   2.23122
 Alpha virt. eigenvalues --    2.24111   2.25208   2.25905   2.28646   2.29723
 Alpha virt. eigenvalues --    2.30650   2.32224   2.33361   2.35751   2.37060
 Alpha virt. eigenvalues --    2.38401   2.39404   2.40171   2.47676   2.48652
 Alpha virt. eigenvalues --    2.49511   2.51062   2.54746   2.56085   2.56398
 Alpha virt. eigenvalues --    2.58135   2.58823   2.60274   2.61694   2.62606
 Alpha virt. eigenvalues --    2.63648   2.65209   2.65667   2.66914   2.67512
 Alpha virt. eigenvalues --    2.69151   2.71613   2.72970   2.74141   2.78177
 Alpha virt. eigenvalues --    2.81022   2.83013   2.84016   2.87554   2.92147
 Alpha virt. eigenvalues --    2.97190   3.03618   3.06952   3.28840   3.29804
 Alpha virt. eigenvalues --    3.36548   3.44149   3.54448
          Condensed to atoms (all electrons):
               1          2          3          4          5          6
     1  C    5.238282   0.161214   0.143138  -0.148879   0.145337   0.198159
     2  C    0.161214   5.199612   0.262851   0.118570  -0.160271   0.145358
     3  C    0.143138   0.262851   5.443035   0.235906   0.046794  -0.180092
     4  C   -0.148879   0.118570   0.235906   5.457473   0.114016   0.042291
     5  C    0.145337  -0.160271   0.046794   0.114016   5.383264   0.226409
     6  C    0.198159   0.145358  -0.180092   0.042291   0.226409   5.466672
     7  C    0.023261  -0.002185   0.031171   0.015894   0.176378  -0.160383
     8  C   -0.001730   0.000368  -0.003889  -0.126636   0.142508   0.020013
     9  C    0.000265  -0.000431   0.017853   0.011634  -0.149503  -0.001016
    10  C   -0.000000  -0.000002   0.000097   0.022823  -0.003162   0.000046
    11  C    0.000000  -0.000000   0.000006  -0.000105  -0.000134  -0.000002
    12  C    0.000000   0.000000  -0.000000  -0.000003   0.000010  -0.000000
    13  C   -0.000000   0.000000   0.000000   0.000001  -0.000001   0.000000
    14  C    0.000000  -0.000000  -0.000000   0.000062   0.000001  -0.000000
    15  C   -0.000000   0.000001  -0.000119  -0.002237  -0.000239   0.000003
    16  C   -0.000002   0.000046  -0.000801   0.011364  -0.000028  -0.000000
    17  C    0.000000  -0.000001   0.000042  -0.000031   0.000002  -0.000000
    18  C   -0.000000   0.000003  -0.000078  -0.000124   0.000000   0.000000
    19  C    0.000003  -0.000079   0.000143   0.001309   0.000033  -0.000001
    20  C   -0.000038  -0.000056  -0.003519  -0.037430  -0.000362   0.000021
    21  C   -0.000159   0.001216  -0.040588  -0.106257   0.016223   0.000096
    22  C   -0.003604   0.014255  -0.127032   0.291967   0.015063   0.023874
    23  H    0.436458  -0.084880   0.015220  -0.001202   0.015879  -0.079308
    24  H   -0.087576   0.438633  -0.075867   0.015846  -0.001796   0.015896
    25  H    0.015169  -0.071058   0.423714  -0.067007   0.016801  -0.001525
    26  H   -0.083033   0.016345  -0.002390   0.016322  -0.080196   0.442411
    27  H    0.001148  -0.000090  -0.000334   0.016071  -0.091400  -0.019729
    28  H    0.000016  -0.000000   0.000021  -0.001788   0.017939  -0.000689
    29  H    0.000000   0.000000   0.000001   0.000062  -0.000127   0.000000
    30  H   -0.000000  -0.000000   0.000000  -0.000000   0.000000  -0.000000
    31  H    0.000000   0.000000  -0.000000   0.000000   0.000000  -0.000000
    32  H   -0.000000   0.000000  -0.000000  -0.000001   0.000000   0.000000
    33  H    0.000000  -0.000000   0.000001   0.000005  -0.000000   0.000000
    34  H    0.000000  -0.000000   0.000000   0.000001   0.000000  -0.000000
    35  H    0.000000  -0.000004   0.000006   0.000022   0.000001  -0.000000
    36  H   -0.000305   0.003366   0.003460   0.002725  -0.000621   0.000085
               7          8          9         10         11         12
     1  C    0.023261  -0.001730   0.000265  -0.000000   0.000000   0.000000
     2  C   -0.002185   0.000368  -0.000431  -0.000002  -0.000000   0.000000
     3  C    0.031171  -0.003889   0.017853   0.000097   0.000006  -0.000000
     4  C    0.015894  -0.126636   0.011634   0.022823  -0.000105  -0.000003
     5  C    0.176378   0.142508  -0.149503  -0.003162  -0.000134   0.000010
     6  C   -0.160383   0.020013  -0.001016   0.000046  -0.000002  -0.000000
     7  C    5.472341   0.230175   0.126135   0.024312   0.001589  -0.000137
     8  C    0.230175   5.473485   0.198211  -0.136990  -0.027625   0.000763
     9  C    0.126135   0.198211   5.531255   0.245699  -0.149394   0.026727
    10  C    0.024312  -0.136990   0.245699   5.595836   0.244986   0.137313
    11  C    0.001589  -0.027625  -0.149394   0.244986   5.446408   0.226694
    12  C   -0.000137   0.000763   0.026727   0.137313   0.226694   5.228916
    13  C    0.000011   0.000034  -0.005767  -0.176714   0.154253   0.150576
    14  C   -0.000002  -0.000465   0.026582   0.033809  -0.178871   0.153243
    15  C    0.000289   0.021574  -0.043067   0.146600   0.038148  -0.177792
    16  C   -0.000168  -0.001053  -0.109014  -0.046647   0.027644  -0.005690
    17  C    0.000001   0.000054  -0.001623   0.018871  -0.000473   0.000032
    18  C   -0.000001   0.000001  -0.000103   0.000496  -0.000004   0.000010
    19  C    0.000003  -0.000001  -0.000112  -0.000238   0.000001  -0.000001
    20  C   -0.000057  -0.000279   0.014158  -0.000927   0.000047   0.000002
    21  C   -0.004803   0.024919  -0.022187  -0.119970  -0.001541  -0.000384
    22  C   -0.142326   0.001933   0.265718  -0.036480   0.016843   0.000616
    23  H   -0.000559   0.000011  -0.000001   0.000000  -0.000000  -0.000000
    24  H    0.000018   0.000001   0.000001  -0.000000   0.000000  -0.000000
    25  H   -0.000292  -0.000053  -0.000488   0.000049   0.000000   0.000000
    26  H   -0.023546   0.001312  -0.000090  -0.000000  -0.000000  -0.000000
    27  H    0.442118  -0.075147   0.016947  -0.000324   0.000009  -0.000002
    28  H   -0.077909   0.422130  -0.052767  -0.045294   0.009524   0.001987
    29  H    0.002090   0.012128  -0.046077  -0.046847   0.419827  -0.084327
    30  H   -0.000002   0.000003  -0.000268   0.015758  -0.075790   0.437704
    31  H   -0.000000  -0.000000   0.000043  -0.001430   0.015837  -0.088380
    32  H   -0.000000   0.000006  -0.000068   0.020444  -0.002367   0.017479
    33  H    0.000000   0.000000  -0.000056  -0.001747   0.000064  -0.000120
    34  H    0.000000   0.000000  -0.000001   0.000008  -0.000000   0.000000
    35  H   -0.000000  -0.000000   0.000001   0.000002   0.000000   0.000000
    36  H   -0.000080   0.000085  -0.000830  -0.000062  -0.000001   0.000000
              13         14         15         16         17         18
     1  C   -0.000000   0.000000  -0.000000  -0.000002   0.000000  -0.000000
     2  C    0.000000  -0.000000   0.000001   0.000046  -0.000001   0.000003
     3  C    0.000000  -0.000000  -0.000119  -0.000801   0.000042  -0.000078
     4  C    0.000001   0.000062  -0.002237   0.011364  -0.000031  -0.000124
     5  C   -0.000001   0.000001  -0.000239  -0.000028   0.000002   0.000000
     6  C    0.000000  -0.000000   0.000003  -0.000000  -0.000000   0.000000
     7  C    0.000011  -0.000002   0.000289  -0.000168   0.000001  -0.000001
     8  C    0.000034  -0.000465   0.021574  -0.001053   0.000054   0.000001
     9  C   -0.005767   0.026582  -0.043067  -0.109014  -0.001623  -0.000103
    10  C   -0.176714   0.033809   0.146600  -0.046647   0.018871   0.000496
    11  C    0.154253  -0.178871   0.038148   0.027644  -0.000473  -0.000004
    12  C    0.150576   0.153243  -0.177792  -0.005690   0.000032   0.000010
    13  C    5.228595   0.224639   0.138503   0.027488   0.000789  -0.000135
    14  C    0.224639   5.448814   0.238222  -0.147820  -0.025214   0.000773
    15  C    0.138503   0.238222   5.638160   0.221365  -0.148500   0.027776
    16  C    0.027488  -0.147820   0.221365   5.547770   0.253688   0.129235
    17  C    0.000789  -0.025214  -0.148500   0.253688   5.444889   0.229391
    18  C   -0.000135   0.000773   0.027776   0.129235   0.229391   5.218942
    19  C    0.000010   0.000010  -0.005351  -0.165705   0.147202   0.161191
    20  C   -0.000007  -0.000452   0.029676   0.062049  -0.183496   0.150411
    21  C    0.000602   0.019059  -0.042053   0.168632   0.035515  -0.171318
    22  C   -0.000317  -0.001236  -0.119436  -0.024604   0.024777  -0.004430
    23  H    0.000000   0.000000   0.000000   0.000000  -0.000000   0.000000
    24  H   -0.000000  -0.000000   0.000000   0.000001  -0.000000   0.000000
    25  H   -0.000000   0.000000  -0.000044  -0.000694   0.000074  -0.000289
    26  H    0.000000  -0.000000   0.000000  -0.000000   0.000000   0.000000
    27  H    0.000000  -0.000000   0.000010  -0.000001   0.000000   0.000000
    28  H   -0.000124   0.000060  -0.001582  -0.000072  -0.000000   0.000000
    29  H    0.017373  -0.002290   0.020638  -0.000125   0.000007  -0.000000
    30  H   -0.088441   0.015873  -0.001470   0.000041  -0.000000  -0.000000
    31  H    0.437475  -0.075856   0.015741  -0.000293   0.000005  -0.000001
    32  H   -0.085138   0.421391  -0.045548  -0.046299   0.010429   0.001869
    33  H    0.001929   0.010939  -0.047533  -0.045288   0.421815  -0.084063
    34  H   -0.000002  -0.000001  -0.000263   0.015932  -0.076315   0.437130
    35  H   -0.000000  -0.000001   0.000035  -0.001388   0.015872  -0.088383
    36  H   -0.000000   0.000007  -0.000116   0.017685  -0.001955   0.016329
              19         20         21         22         23         24
     1  C    0.000003  -0.000038  -0.000159  -0.003604   0.436458  -0.087576
     2  C   -0.000079  -0.000056   0.001216   0.014255  -0.084880   0.438633
     3  C    0.000143  -0.003519  -0.040588  -0.127032   0.015220  -0.075867
     4  C    0.001309  -0.037430  -0.106257   0.291967  -0.001202   0.015846
     5  C    0.000033  -0.000362   0.016223   0.015063   0.015879  -0.001796
     6  C   -0.000001   0.000021   0.000096   0.023874  -0.079308   0.015896
     7  C    0.000003  -0.000057  -0.004803  -0.142326  -0.000559   0.000018
     8  C   -0.000001  -0.000279   0.024919   0.001933   0.000011   0.000001
     9  C   -0.000112   0.014158  -0.022187   0.265718  -0.000001   0.000001
    10  C   -0.000238  -0.000927  -0.119970  -0.036480   0.000000  -0.000000
    11  C    0.000001   0.000047  -0.001541   0.016843  -0.000000   0.000000
    12  C   -0.000001   0.000002  -0.000384   0.000616  -0.000000  -0.000000
    13  C    0.000010  -0.000007   0.000602  -0.000317   0.000000  -0.000000
    14  C    0.000010  -0.000452   0.019059  -0.001236   0.000000  -0.000000
    15  C   -0.005351   0.029676  -0.042053  -0.119436   0.000000   0.000000
    16  C   -0.165705   0.062049   0.168632  -0.024604   0.000000   0.000001
    17  C    0.147202  -0.183496   0.035515   0.024777  -0.000000  -0.000000
    18  C    0.161191   0.150411  -0.171318  -0.004430   0.000000   0.000000
    19  C    5.206269   0.240744   0.136626   0.018189  -0.000000  -0.000004
    20  C    0.240744   5.451712   0.226601  -0.132757   0.000001  -0.000004
    21  C    0.136626   0.226601   5.543372   0.303127   0.000000   0.000021
    22  C    0.018189  -0.132757   0.303127   5.574392   0.000044  -0.000229
    23  H   -0.000000   0.000001   0.000000   0.000044   0.673472  -0.012254
    24  H   -0.000004  -0.000004   0.000021  -0.000229  -0.012254   0.669692
    25  H    0.003098   0.004629   0.002840  -0.020414  -0.000334  -0.013226
    26  H   -0.000000   0.000000   0.000007  -0.000086  -0.012514  -0.000358
    27  H    0.000000   0.000001   0.000026  -0.001747  -0.000021  -0.000001
    28  H   -0.000000   0.000009  -0.000082   0.018680  -0.000000   0.000000
    29  H    0.000000  -0.000001  -0.000017  -0.001791  -0.000000   0.000000
    30  H    0.000000   0.000000   0.000000   0.000007  -0.000000   0.000000
    31  H    0.000000  -0.000000   0.000007  -0.000000  -0.000000  -0.000000
    32  H   -0.000117   0.000080  -0.001689  -0.000049  -0.000000   0.000000
    33  H    0.017345  -0.002445   0.020141  -0.000046   0.000000  -0.000000
    34  H   -0.088116   0.015936  -0.001548   0.000027  -0.000000   0.000000
    35  H    0.439031  -0.077271   0.015663  -0.000297  -0.000000  -0.000000
    36  H   -0.073428   0.426822  -0.064655  -0.024686  -0.000001   0.000107
              25         26         27         28         29         30
     1  C    0.015169  -0.083033   0.001148   0.000016   0.000000  -0.000000
     2  C   -0.071058   0.016345  -0.000090  -0.000000   0.000000  -0.000000
     3  C    0.423714  -0.002390  -0.000334   0.000021   0.000001   0.000000
     4  C   -0.067007   0.016322   0.016071  -0.001788   0.000062  -0.000000
     5  C    0.016801  -0.080196  -0.091400   0.017939  -0.000127   0.000000
     6  C   -0.001525   0.442411  -0.019729  -0.000689   0.000000  -0.000000
     7  C   -0.000292  -0.023546   0.442118  -0.077909   0.002090  -0.000002
     8  C   -0.000053   0.001312  -0.075147   0.422130   0.012128   0.000003
     9  C   -0.000488  -0.000090   0.016947  -0.052767  -0.046077  -0.000268
    10  C    0.000049  -0.000000  -0.000324  -0.045294  -0.046847   0.015758
    11  C    0.000000  -0.000000   0.000009   0.009524   0.419827  -0.075790
    12  C    0.000000  -0.000000  -0.000002   0.001987  -0.084327   0.437704
    13  C   -0.000000   0.000000   0.000000  -0.000124   0.017373  -0.088441
    14  C    0.000000  -0.000000  -0.000000   0.000060  -0.002290   0.015873
    15  C   -0.000044   0.000000   0.000010  -0.001582   0.020638  -0.001470
    16  C   -0.000694  -0.000000  -0.000001  -0.000072  -0.000125   0.000041
    17  C    0.000074   0.000000   0.000000  -0.000000   0.000007  -0.000000
    18  C   -0.000289   0.000000   0.000000   0.000000  -0.000000  -0.000000
    19  C    0.003098  -0.000000   0.000000  -0.000000   0.000000   0.000000
    20  C    0.004629   0.000000   0.000001   0.000009  -0.000001   0.000000
    21  C    0.002840   0.000007   0.000026  -0.000082  -0.000017   0.000000
    22  C   -0.020414  -0.000086  -0.001747   0.018680  -0.001791   0.000007
    23  H   -0.000334  -0.012514  -0.000021  -0.000000  -0.000000  -0.000000
    24  H   -0.013226  -0.000358  -0.000001   0.000000   0.000000   0.000000
    25  H    0.654048   0.000029   0.000013  -0.000001  -0.000000   0.000000
    26  H    0.000029   0.677324   0.006347  -0.000028   0.000000  -0.000000
    27  H    0.000013   0.006347   0.683258  -0.014609   0.000055  -0.000000
    28  H   -0.000001  -0.000028  -0.014609   0.685245  -0.001731   0.000044
    29  H   -0.000000   0.000000   0.000055  -0.001731   0.683533  -0.014126
    30  H    0.000000  -0.000000  -0.000000   0.000044  -0.014126   0.674384
    31  H   -0.000000  -0.000000  -0.000000  -0.000000  -0.000404  -0.012112
    32  H   -0.000000  -0.000000   0.000000   0.000001   0.000014  -0.000406
    33  H   -0.000001  -0.000000  -0.000000  -0.000000   0.000001  -0.000000
    34  H   -0.000001   0.000000   0.000000  -0.000000   0.000000  -0.000000
    35  H    0.000134  -0.000000  -0.000000   0.000000  -0.000000  -0.000000
    36  H   -0.005063  -0.000000  -0.000000   0.000001  -0.000000  -0.000000
              31         32         33         34         35         36
     1  C    0.000000  -0.000000   0.000000   0.000000   0.000000  -0.000305
     2  C    0.000000   0.000000  -0.000000  -0.000000  -0.000004   0.003366
     3  C   -0.000000  -0.000000   0.000001   0.000000   0.000006   0.003460
     4  C    0.000000  -0.000001   0.000005   0.000001   0.000022   0.002725
     5  C    0.000000   0.000000  -0.000000   0.000000   0.000001  -0.000621
     6  C   -0.000000   0.000000   0.000000  -0.000000  -0.000000   0.000085
     7  C   -0.000000  -0.000000   0.000000   0.000000  -0.000000  -0.000080
     8  C   -0.000000   0.000006   0.000000   0.000000  -0.000000   0.000085
     9  C    0.000043  -0.000068  -0.000056  -0.000001   0.000001  -0.000830
    10  C   -0.001430   0.020444  -0.001747   0.000008   0.000002  -0.000062
    11  C    0.015837  -0.002367   0.000064  -0.000000   0.000000  -0.000001
    12  C   -0.088380   0.017479  -0.000120   0.000000   0.000000   0.000000
    13  C    0.437475  -0.085138   0.001929  -0.000002  -0.000000  -0.000000
    14  C   -0.075856   0.421391   0.010939  -0.000001  -0.000001   0.000007
    15  C    0.015741  -0.045548  -0.047533  -0.000263   0.000035  -0.000116
    16  C   -0.000293  -0.046299  -0.045288   0.015932  -0.001388   0.017685
    17  C    0.000005   0.010429   0.421815  -0.076315   0.015872  -0.001955
    18  C   -0.000001   0.001869  -0.084063   0.437130  -0.088383   0.016329
    19  C    0.000000  -0.000117   0.017345  -0.088116   0.439031  -0.073428
    20  C   -0.000000   0.000080  -0.002445   0.015936  -0.077271   0.426822
    21  C    0.000007  -0.001689   0.020141  -0.001548   0.015663  -0.064655
    22  C   -0.000000  -0.000049  -0.000046   0.000027  -0.000297  -0.024686
    23  H   -0.000000  -0.000000   0.000000  -0.000000  -0.000000  -0.000001
    24  H   -0.000000   0.000000  -0.000000   0.000000  -0.000000   0.000107
    25  H   -0.000000  -0.000000  -0.000001  -0.000001   0.000134  -0.005063
    26  H   -0.000000  -0.000000  -0.000000   0.000000  -0.000000  -0.000000
    27  H   -0.000000   0.000000  -0.000000   0.000000  -0.000000  -0.000000
    28  H   -0.000000   0.000001  -0.000000  -0.000000   0.000000   0.000001
    29  H   -0.000404   0.000014   0.000001   0.000000  -0.000000  -0.000000
    30  H   -0.012112  -0.000406  -0.000000  -0.000000  -0.000000  -0.000000
    31  H    0.674789  -0.014027   0.000041  -0.000000  -0.000000   0.000000
    32  H   -0.014027   0.684709  -0.001737   0.000044  -0.000000   0.000001
    33  H    0.000041  -0.001737   0.683840  -0.014040  -0.000417   0.000013
    34  H   -0.000000   0.000044  -0.014040   0.675755  -0.012104  -0.000372
    35  H   -0.000000  -0.000000  -0.000417  -0.012104   0.673103  -0.013315
    36  H    0.000000   0.000001   0.000013  -0.000372  -0.013315   0.654765
 Mulliken charges:
               1
     1  C   -0.037122
     2  C   -0.042778
     3  C   -0.188751
     4  C    0.117338
     5  C    0.171184
     6  C   -0.138589
     7  C   -0.133339
     8  C   -0.175844
     9  C    0.101632
    10  C    0.109686
    11  C   -0.165573
    12  C   -0.025236
    13  C   -0.025632
    14  C   -0.161279
    15  C    0.098609
    16  C    0.112751
    17  C   -0.165844
    18  C   -0.024630
    19  C   -0.038055
    20  C   -0.183799
    21  C    0.062553
    22  C    0.072055
    23  H    0.049990
    24  H    0.051101
    25  H    0.059892
    26  H    0.042143
    27  H    0.037402
    28  H    0.041020
    29  H    0.042132
    30  H    0.048800
    31  H    0.048567
    32  H    0.040979
    33  H    0.041358
    34  H    0.047929
    35  H    0.049311
    36  H    0.060038
 Sum of Mulliken charges =  -0.00000
 Mulliken charges with hydrogens summed into heavy atoms:
               1
     1  C    0.012868
     2  C    0.008323
     3  C   -0.128859
     4  C    0.117338
     5  C    0.171184
     6  C   -0.096445
     7  C   -0.095937
     8  C   -0.134824
     9  C    0.101632
    10  C    0.109686
    11  C   -0.123441
    12  C    0.023564
    13  C    0.022936
    14  C   -0.120300
    15  C    0.098609
    16  C    0.112751
    17  C   -0.124485
    18  C    0.023299
    19  C    0.011256
    20  C   -0.123762
    21  C    0.062553
    22  C    0.072055
 Electronic spatial extent (au):  <R**2>=           6330.6175
 Charge=              0.0000 electrons
 Dipole moment (field-independent basis, Debye):
    X=             -0.0534    Y=             -0.0750    Z=              0.0347  Tot=              0.0984
 Quadrupole moment (field-independent basis, Debye-Ang):
   XX=           -110.6694   YY=           -111.7679   ZZ=           -133.5154
   XY=             -0.1359   XZ=             -0.9516   YZ=              1.5913
 Traceless Quadrupole moment (field-independent basis, Debye-Ang):
   XX=              7.9815   YY=              6.8830   ZZ=            -14.8645
   XY=             -0.1359   XZ=             -0.9516   YZ=              1.5913
 Octapole moment (field-independent basis, Debye-Ang**2):
  XXX=             -1.0042  YYY=              1.5680  ZZZ=              0.2897  XYY=             -5.0366
  XXY=             -3.9429  XXZ=             13.0293  XZZ=              2.9622  YZZ=              1.6204
  YYZ=             -7.8681  XYZ=              6.3173
 Hexadecapole moment (field-independent basis, Debye-Ang**3):
 XXXX=          -5147.2131 YYYY=          -2738.4087 ZZZZ=           -240.1799 XXXY=              6.0613
 XXXZ=            -10.0657 YYYX=             -5.4193 YYYZ=             -1.9853 ZZZX=              0.9472
 ZZZY=              3.1399 XXYY=          -1321.3431 XXZZ=          -1061.0664 YYZZ=           -576.2029
 XXYZ=             27.3118 YYXZ=            -11.3327 ZZXY=              5.2109
 N-N= 1.578835594762D+03 E-N=-5.115295616469D+03  KE= 8.373326299123D+02
   1 Symmetry operations used in ECPInt.
 ECPInt:  NShTT=   12880 NPrTT=   51688 LenC2=   11970 LenP2D=   32804.
 LDataN:  DoStor=T MaxTD1= 5 Len=  102
 Calling FoFJK, ICntrl=      2127 FMM=F ISym2X=0 I1Cent= 0 IOpClX= 0 NMat=1 NMatS=1 NMatT=0.
 ***** Axes restored to original set *****
 -------------------------------------------------------------------
 Center     Atomic                   Forces (Hartrees/Bohr)
 Number     Number              X              Y              Z
 -------------------------------------------------------------------
      1        6           0.003689293   -0.021634610   -0.007202765
      2        6          -0.026179619    0.007910024    0.001377680
      3        6           0.004690317    0.010922327    0.002616717
      4        6          -0.006906794    0.019836749    0.001877062
      5        6           0.015064423    0.003141689   -0.001599385
      6        6           0.016103379    0.014864074    0.005768751
      7        6          -0.043531208   -0.023779624   -0.004228006
      8        6           0.024755721   -0.014060215   -0.000852293
      9        6           0.018464477    0.007927350   -0.001111595
     10        6          -0.020083521   -0.012651788   -0.000815845
     11        6          -0.001326824   -0.002277172    0.000374209
     12        6           0.022506748   -0.008537120   -0.002220929
     13        6          -0.000974762    0.023796023   -0.000379838
     14        6          -0.001750193   -0.002210862    0.000733973
     15        6          -0.022972615   -0.015952791    0.005022136
     16        6          -0.002563284    0.025294968    0.000565372
     17        6           0.001176046    0.001849820   -0.002155468
     18        6          -0.018165560   -0.012792339    0.005729988
     19        6           0.020721562   -0.011653397   -0.002279715
     20        6           0.005392126    0.006856332   -0.001565436
     21        6           0.006365760    0.019606716   -0.001875614
     22        6           0.006256258   -0.012383650    0.003183926
     23        1           0.005831041   -0.000520405   -0.000300773
     24        1           0.000467083    0.004545492    0.002565786
     25        1          -0.003852036    0.001608741   -0.002009787
     26        1          -0.001726576   -0.005270090   -0.001286004
     27        1           0.003512568   -0.002068821   -0.001598312
     28        1          -0.006103031   -0.001510227    0.000133867
     29        1           0.006406858   -0.000567143   -0.001096030
     30        1          -0.000345188   -0.005532055    0.000110762
     31        1          -0.005385805    0.001339866    0.000666563
     32        1           0.001582833    0.006372712   -0.000215756
     33        1          -0.003681036   -0.005686636    0.000872779
     34        1          -0.004593844    0.003473391    0.000869033
     35        1           0.003742946    0.003685222   -0.002238755
     36        1           0.003412458   -0.003942550    0.002563701
 -------------------------------------------------------------------
 Cartesian Forces:  Max     0.043531208 RMS     0.010450189

 GradGradGradGradGradGradGradGradGradGradGradGradGradGradGradGradGradGrad
 Berny optimization.
 FormGI is forming the generalized inverse of G from B-inverse, IUseBI=4.
 Internal  Forces:  Max     0.037067416 RMS     0.006343745
 Search for a local minimum.
 Step number   1 out of a maximum of  216
 All quantities printed in internal units (Hartrees-Bohrs-Radians)
 Mixed Optimization -- RFO/linear search
 Second derivative matrix not updated -- first step.
 ITU=  0
     Eigenvalues ---    0.01483   0.01620   0.01665   0.01703   0.01722
     Eigenvalues ---    0.01739   0.01762   0.01781   0.01807   0.01811
     Eigenvalues ---    0.01904   0.01930   0.01940   0.01950   0.01955
     Eigenvalues ---    0.01963   0.01974   0.01983   0.01988   0.02043
     Eigenvalues ---    0.02088   0.02104   0.02177   0.02197   0.02226
     Eigenvalues ---    0.02242   0.02253   0.02254   0.02264   0.02278
     Eigenvalues ---    0.02279   0.02315   0.02327   0.15954   0.15969
     Eigenvalues ---    0.15972   0.15981   0.15985   0.15994   0.15994
     Eigenvalues ---    0.15995   0.15998   0.15998   0.15998   0.15999
     Eigenvalues ---    0.16000   0.16000   0.21993   0.21994   0.22000
     Eigenvalues ---    0.22375   0.22503   0.22563   0.22663   0.24106
     Eigenvalues ---    0.24322   0.24433   0.24460   0.24604   0.24700
     Eigenvalues ---    0.24823   0.24986   0.34599   0.35007   0.35077
     Eigenvalues ---    0.35109   0.35113   0.35198   0.35243   0.35252
     Eigenvalues ---    0.35259   0.35273   0.35277   0.35278   0.35284
     Eigenvalues ---    0.35307   0.35312   0.36171   0.36607   0.38480
     Eigenvalues ---    0.39038   0.39179   0.39349   0.39900   0.39969
     Eigenvalues ---    0.40322   0.41082   0.41665   0.41943   0.42360
     Eigenvalues ---    0.43326   0.45122   0.45167   0.45229   0.45935
     Eigenvalues ---    0.46026   0.46077   0.46299   0.47720   0.47873
     Eigenvalues ---    0.48824   0.48985
 RFO step:  Lambda=-2.25002788D-02 EMin= 1.48330387D-02
 Linear search not attempted -- first point.
 Iteration  1 RMS(Cart)=  0.05702002 RMS(Int)=  0.00066777
 Iteration  2 RMS(Cart)=  0.00123679 RMS(Int)=  0.00010965
 Iteration  3 RMS(Cart)=  0.00000063 RMS(Int)=  0.00010965
 Variable       Old X    -DE/DX   Delta X   Delta X   Delta X     New X
                                 (Linear)    (Quad)   (Total)
    R1        2.61288   0.02619   0.00000   0.05097   0.05094   2.66382
    R2        2.62522  -0.00392   0.00000  -0.00744  -0.00740   2.61782
    R3        2.05228   0.00579   0.00000   0.01543   0.01543   2.06771
    R4        2.64580  -0.01133   0.00000  -0.02469  -0.02477   2.62104
    R5        2.05355   0.00479   0.00000   0.01279   0.01279   2.06634
    R6        2.68814  -0.00260   0.00000  -0.00642  -0.00646   2.68168
    R7        2.05498   0.00252   0.00000   0.00676   0.00676   2.06174
    R8        2.67432   0.01647   0.00000   0.03889   0.03889   2.71320
    R9        2.77709  -0.01561   0.00000  -0.04197  -0.04201   2.73507
   R10        2.65924   0.00957   0.00000   0.02154   0.02161   2.68084
   R11        2.61301   0.03707   0.00000   0.07524   0.07525   2.68826
   R12        2.05663   0.00368   0.00000   0.00988   0.00988   2.06652
   R13        2.62670  -0.01722   0.00000  -0.03430  -0.03427   2.59243
   R14        2.05550   0.00382   0.00000   0.01022   0.01022   2.06572
   R15        2.67345   0.01029   0.00000   0.02071   0.02074   2.69419
   R16        2.05216   0.00369   0.00000   0.00984   0.00984   2.06200
   R17        2.71656   0.01400   0.00000   0.03297   0.03296   2.74953
   R18        2.68421   0.00033   0.00000  -0.00286  -0.00287   2.68135
   R19        2.69574  -0.01044   0.00000  -0.02448  -0.02445   2.67129
   R20        2.67768   0.00966   0.00000   0.02121   0.02126   2.69894
   R21        2.63481  -0.00714   0.00000  -0.01417  -0.01419   2.62062
   R22        2.05227   0.00386   0.00000   0.01029   0.01029   2.06256
   R23        2.60035   0.02786   0.00000   0.05447   0.05441   2.65477
   R24        2.05282   0.00519   0.00000   0.01385   0.01385   2.06667
   R25        2.63329  -0.00629   0.00000  -0.01227  -0.01230   2.62099
   R26        2.05267   0.00530   0.00000   0.01413   0.01413   2.06680
   R27        2.69429  -0.01022   0.00000  -0.02378  -0.02376   2.67053
   R28        2.05180   0.00396   0.00000   0.01054   0.01054   2.06233
   R29        2.70106   0.01928   0.00000   0.04565   0.04564   2.74670
   R30        2.69397  -0.01038   0.00000  -0.02449  -0.02451   2.66946
   R31        2.68597   0.00866   0.00000   0.01851   0.01853   2.70450
   R32        2.63188  -0.00456   0.00000  -0.00898  -0.00901   2.62288
   R33        2.05172   0.00388   0.00000   0.01034   0.01034   2.06206
   R34        2.59829   0.02832   0.00000   0.05525   0.05525   2.65353
   R35        2.05234   0.00548   0.00000   0.01459   0.01459   2.06693
   R36        2.63492  -0.00670   0.00000  -0.01296  -0.01295   2.62197
   R37        2.05256   0.00531   0.00000   0.01416   0.01416   2.06672
   R38        2.68861  -0.00523   0.00000  -0.01220  -0.01218   2.67643
   R39        2.05493   0.00210   0.00000   0.00562   0.00562   2.06054
   R40        2.73548   0.00495   0.00000   0.01124   0.01127   2.74675
    A1        2.07723   0.00132   0.00000   0.00680   0.00674   2.08397
    A2        2.10366   0.00008   0.00000   0.00065   0.00068   2.10434
    A3        2.10151  -0.00139   0.00000  -0.00730  -0.00728   2.09423
    A4        2.08981   0.00382   0.00000   0.01427   0.01410   2.10391
    A5        2.09957   0.00006   0.00000   0.00372   0.00379   2.10337
    A6        2.09366  -0.00388   0.00000  -0.01788  -0.01781   2.07585
    A7        2.15622  -0.00738   0.00000  -0.03166  -0.03184   2.12438
    A8        2.02621   0.00691   0.00000   0.03356   0.03364   2.05985
    A9        2.09907   0.00047   0.00000  -0.00170  -0.00161   2.09746
   A10        1.99623   0.01286   0.00000   0.04781   0.04785   2.04408
   A11        2.18623  -0.00824   0.00000  -0.03249  -0.03237   2.15386
   A12        2.09910  -0.00464   0.00000  -0.01527  -0.01541   2.08369
   A13        2.12710  -0.00887   0.00000  -0.03290  -0.03280   2.09430
   A14        2.08366  -0.00294   0.00000  -0.00409  -0.00420   2.07946
   A15        2.07203   0.01180   0.00000   0.03686   0.03687   2.10890
   A16        2.11288  -0.00169   0.00000  -0.00252  -0.00247   2.11041
   A17        2.06752   0.00531   0.00000   0.02572   0.02569   2.09320
   A18        2.10242  -0.00362   0.00000  -0.02318  -0.02320   2.07922
   A19        2.09487  -0.00002   0.00000   0.00703   0.00695   2.10182
   A20        2.11330  -0.00174   0.00000  -0.01290  -0.01292   2.10038
   A21        2.07255   0.00182   0.00000   0.00691   0.00689   2.07944
   A22        2.15187  -0.00571   0.00000  -0.02503  -0.02502   2.12685
   A23        2.01327   0.00805   0.00000   0.04103   0.04102   2.05429
   A24        2.11789  -0.00235   0.00000  -0.01610  -0.01611   2.10178
[...]
 00015120,-0.00040814,-0.00001508,-0.00000260,0.00007959,0.00000211,0.0
 0000256,-0.00000457,0.00000152,0.00000093,0.00000003,-0.00000167,-0.00
 000160,0.00000279,0.00000076,-0.00000195,0.00000066,0.00000084,-0.0000
 0198,0.00000129,-0.00002152,-0.00001151,0.00006589,0.00025640,0.000064
 14,0.00010358,-0.00088935,0.00017576,-0.00327755,-0.06471665,-0.003522
 43,0.03907045,-0.00002720,-0.00001610,-0.00001123,-0.00001728,-0.00000
 827,-0.00000352,-0.00003026,0.00004937,0.00003504,0.00005940,-0.000111
 76,0.00003951,-0.00002096,0.00000090,-0.00001610,0.00003130,-0.0000204
 1,-0.00000908,-0.00000580,0.00011935,0.00003528,-0.00044915,-0.0002288
 4,-0.00003573,-0.00008668,0.00146096,0.00017062,-0.00447150,-0.0025712
 8,0.00209663,-0.00037157,-0.00078496,-0.00002770,-0.00008448,-0.002499
 55,0.00152815,0.01086219,-0.01290164,-0.00175462,-0.14963405,0.1299682
 5,0.02950824,-0.01213278,0.02572180,0.00412410,0.00078508,0.00132553,-
 0.00084968,-0.00126098,0.00020207,0.00006726,0.00059950,-0.00045672,-0
 .00013563,0.00013102,0.00005835,-0.00003182,0.00017998,0.00014332,0.00
 003924,-0.00020404,-0.00008199,-0.00018284,0.00006486,0.00015046,0.000
 00705,-0.00000110,-0.00000336,-0.00000162,-0.00000771,-0.00000401,-0.0
 0000194,-0.00000916,-0.00001849,-0.00002380,0.00000097,0.00000201,0.00
 000114,-0.00005248,-0.00000063,0.00000209,0.00002753,0.00000474,-0.000
 00242,-0.00002064,0.00010395,-0.00021446,0.00032583,-0.00060128,-0.000
 06867,0.00070587,0.00041123,-0.00116185,0.15400820,0.00000947,0.000007
 28,0.00000379,0.00000891,-0.00000461,-0.00000168,0.00000708,-0.0000126
 1,-0.00000394,-0.00002256,-0.00001508,0.00000563,0.00002249,0.00000474
 ,0.00000039,-0.00000830,0.00000813,0.00000317,-0.00001031,0.00000718,0
 .00000640,-0.00003283,0.00000428,-0.00004069,-0.00023467,0.00023718,0.
 00015058,-0.00114932,0.00094402,-0.00002403,-0.00086598,0.00029033,0.0
 0025424,-0.00385465,-0.00359129,0.00031596,0.01866733,-0.01942077,-0.0
 0485796,0.12966872,-0.23945522,-0.03683127,-0.00113931,0.00616732,0.00
 034541,0.00070465,-0.00151920,0.00012147,-0.00243081,-0.00240549,0.001
 12227,-0.00034871,0.00002439,-0.00000480,0.00001640,-0.00007127,0.0000
 3375,0.00004659,-0.00001010,-0.00002374,0.00012702,0.00015389,0.000098
 64,-0.00000937,0.00008301,-0.00013838,0.00000504,0.00000046,0.00000077
 ,0.00000375,0.00000437,0.00000102,-0.00000530,-0.00000207,-0.00000341,
 0.00000281,-0.00000386,-0.00000114,0.00000019,-0.00000325,0.00000497,-
 0.00001118,0.00000354,0.00000387,0.00007827,-0.00004827,0.00001424,0.0
 0081497,-0.00091339,-0.00024864,-0.00009848,0.00120330,0.00027136,-0.1
 3769307,0.26083997,0.00000807,0.00000154,0.00000039,0.00000021,0.00000
 446,-0.00000086,0.00001222,0.00000125,-0.00001160,-0.00004724,0.000029
 78,0.00002620,0.00000600,-0.00001420,-0.00000672,-0.00000859,0.0000075
 5,0.00000189,0.00000963,-0.00003006,-0.00000961,0.00010059,0.00007930,
 -0.00000435,0.00022776,-0.00049810,0.00028635,0.00200920,0.00033991,0.
 00535754,0.00021353,0.00049869,-0.00052437,0.00107456,0.00025157,0.007
 30932,-0.00046190,0.00122469,0.00509167,0.03064362,-0.03642755,-0.0462
 4003,0.00162341,-0.00556096,0.00308992,-0.00102451,0.00025589,-0.00310
 555,0.00110024,0.00007457,-0.00007399,-0.00037729,-0.00000626,-0.00030
 584,0.00005077,-0.00006972,-0.00001848,-0.00007080,0.00010204,0.000115
 46,-0.00014533,-0.00001757,0.00003818,-0.00006260,-0.00013515,-0.00022
 162,0.00000066,0.00000048,0.00000162,0.00000112,0.00000052,0.00000147,
 0.00000175,0.00000185,0.00001032,-0.00000057,-0.00000148,0.00000061,0.
 00001807,0.00000249,-0.00001132,-0.00000256,-0.00001047,0.00000727,-0.
 00017026,0.00000974,-0.00098092,-0.00001357,0.00007666,0.00014826,-0.0
 0113617,0.00016618,-0.00448601,-0.03383315,0.03821599,0.03352317,0.000
 01287,-0.00000641,-0.00000068,-0.00001500,-0.00001254,-0.00000351,0.00
 002443,0.00000149,-0.00000954,-0.00003354,0.00029038,0.00001102,-0.000
 05904,-0.00002530,-0.00002976,-0.00000513,0.00002319,0.00001403,-0.000
 01205,0.00005225,0.00001167,0.00003480,-0.00004565,-0.00000091,0.00003
 383,-0.00003777,-0.00014507,-0.00000040,0.00020405,0.00003043,0.000005
 61,-0.00010052,0.00001410,-0.00005129,-0.00011030,-0.00006167,0.000638
 00,-0.00031961,-0.00016376,-0.00075062,-0.00205788,0.00104552,-0.00140
 585,-0.00134552,-0.00026616,-0.01421874,-0.00206106,0.00252724,-0.3351
 7123,-0.01505865,0.03353138,-0.00938700,0.00182636,0.00131037,0.000961
 89,-0.00261731,0.00104662,0.00084242,0.00002235,-0.00025619,0.00050716
 ,0.00342484,-0.00006604,-0.00057418,-0.00058889,0.00026899,-0.00000853
 ,0.00000044,-0.00000214,-0.00000591,-0.00000526,0.00000060,0.00001251,
 0.00000876,0.00000608,-0.00001159,0.00000532,0.00000028,-0.00000390,0.
 00000559,-0.00000097,-0.00000981,0.00003206,0.00001127,0.00000332,0.00
 001430,-0.00000385,0.00004133,-0.00005775,-0.00001258,0.00000381,0.000
 03336,0.00004169,0.00102092,-0.00230023,0.00025783,0.35724915,-0.00001
 355,-0.00000236,-0.00000316,0.00000484,0.00001703,0.00000169,-0.000013
 54,-0.00001490,-0.00003083,0.00009248,-0.00039441,0.00001374,0.0000868
 2,0.00003225,0.00003537,0.00001644,-0.00003953,-0.00002459,0.00002093,
 -0.00001336,-0.00000362,-0.00008647,-0.00000429,0.00002983,0.00008035,
 0.00012087,-0.00005865,0.00006702,-0.00003458,-0.00003044,-0.00002907,
 0.00019651,0.00003537,-0.00008925,0.00009025,0.00002939,-0.00047911,-0
 .00002509,-0.00009322,0.00075836,-0.00311047,0.00040010,-0.00065907,0.
 00103075,-0.00058778,0.02460772,0.00708403,-0.00322331,-0.01506734,-0.
 05834536,0.00414293,-0.02962074,0.00206737,0.00383113,-0.00133532,-0.0
 0432659,0.00239470,0.00021811,-0.00116417,0.00005126,0.00215928,-0.003
 95963,0.00137314,0.00118057,0.00072426,0.00005790,0.00000129,-0.000000
 59,0.00000200,0.00000501,-0.00000044,0.00000229,-0.00001404,-0.0000038
 6,0.00000717,0.00001306,-0.00000094,0.00000191,-0.00000475,-0.00000186
 ,-0.00000182,0.00001868,-0.00002990,-0.00001423,-0.00000218,0.00002516
 ,-0.00000025,-0.00003000,0.00005506,0.00003294,0.00001196,0.00001757,0
 .00001440,-0.00173479,-0.00255296,0.00139166,0.02090287,0.06156438,0.0
 0000205,-0.00000402,0.00000809,-0.00000989,0.00000634,0.00000150,0.000
 02935,-0.00007879,-0.00006657,0.00002250,0.00006383,0.00008527,-0.0000
 0285,-0.00000075,0.00000699,-0.00000226,0.00001165,-0.00001845,-0.0000
 2440,-0.00000743,0.00000282,0.00006086,-0.00001155,0.00003466,-0.00006
 014,-0.00000791,-0.00016960,0.00006469,-0.00024519,-0.00002765,0.00019
 337,0.00004584,0.00008640,-0.00018077,0.00008370,0.00001966,0.00000354
 ,-0.00030443,-0.00035775,-0.00031954,0.00129645,-0.00004175,0.00052329
 ,0.00028624,-0.00334027,-0.00419190,0.00012650,0.00391493,0.03251750,0
 .00231876,-0.04156472,0.00819478,0.00178500,0.00363235,0.00034333,0.00
 280365,0.00699284,-0.00007636,-0.00127581,-0.00030129,0.00174399,0.002
 03401,0.00524530,-0.00010842,-0.00003369,0.00019257,-0.00000060,0.0000
 0053,0.00000151,-0.00000034,0.00000050,-0.00000089,-0.00003632,0.00003
 989,-0.00001188,-0.00000066,0.00000038,-0.00000222,0.00000170,-0.00000
 016,-0.00000053,-0.00000501,0.00000078,-0.00000531,0.00000192,-0.00001
 703,0.00000768,0.00002518,-0.00001691,0.00007878,0.00000531,0.00000108
 ,0.00001606,0.00070928,0.00122185,0.00087505,-0.03862894,-0.00891610,0
 .02994819,-0.00000318,0.00002312,0.00001498,0.00004630,0.00002600,-0.0
 0000326,-0.00001886,-0.00001030,-0.00007611,0.00001678,0.00000925,-0.0
 0002625,0.00002473,-0.00001329,-0.00000018,-0.00003003,-0.00000039,-0.
 00000147,-0.00002219,-0.00001045,-0.00000744,0.00004080,-0.00000494,0.
 00001499,-0.00014853,-0.00001261,0.00003815,-0.00000760,-0.00014200,-0
 .00006575,0.00001907,-0.00006878,-0.00002680,0.00005985,-0.00000619,-0
 .00000253,-0.00003816,0.00006489,0.00000068,-0.00001995,-0.00001754,-0
 .00000548,0.00058294,-0.00019271,0.00004866,-0.00040603,-0.00253275,0.
 00151498,0.01079536,-0.01208028,0.00146569,-0.15401735,0.13233177,-0.0
 0896717,-0.01191951,0.02676777,-0.00341141,-0.00495730,-0.00168857,0.0
 0252968,-0.00028450,-0.00094511,0.00013615,0.00002418,0.00011930,-0.00
 017178,-0.00000859,0.00000350,0.00000227,-0.00000375,-0.00000437,-0.00
 000159,0.00001034,0.00003424,0.00006181,-0.00000321,0.00000484,0.00000
 068,-0.00000270,0.00000497,0.00000092,-0.00000127,0.00000853,0.0000037
 4,-0.00001098,-0.00001625,-0.00000376,0.00000119,0.00000347,0.00000166
 ,0.00000188,-0.00000311,-0.00000119,-0.00001001,0.00003116,0.00001657,
 0.00093842,0.00024618,-0.00078610,0.15873179,0.00000540,0.00000629,0.0
 0000156,0.00000679,-0.00000419,0.00000056,0.00002237,-0.00001057,0.000
 03411,0.00001746,0.00000611,-0.00003012,0.00002914,-0.00000123,0.00001
 069,-0.00000427,0.00000786,0.00000023,-0.00000689,-0.00000926,-0.00000
 683,0.00002267,0.00001404,0.00001238,-0.00015144,-0.00003894,0.0000734
 8,-0.00026119,-0.00031239,-0.00003462,0.00007289,-0.00008381,-0.000047
 22,0.00002713,-0.00005131,0.00000317,-0.00002201,0.00006284,-0.0000114
 5,-0.00002290,-0.00007440,-0.00000277,0.00127882,-0.00028028,0.0000633
 4,-0.00354155,-0.00264891,0.00227942,0.01814734,-0.01762143,0.00175903
 ,0.13172630,-0.23922651,0.02073822,-0.00348038,0.00546205,0.00019169,-
 0.00047569,0.00162131,0.00108093,-0.00073557,0.00008929,-0.00010725,-0
 .00005212,0.00017230,-0.00019024,0.00000627,-0.00000027,0.00000078,0.0
 0000327,0.00000440,0.00000165,-0.00000361,-0.00000658,-0.00001569,0.00
 000317,-0.00000494,-0.00000074,0.00000795,-0.00000377,-0.00000021,-0.0
 0000626,-0.00000179,-0.00000211,-0.00001831,-0.00004872,-0.00000658,-0
 .00000464,-0.00001037,0.00000526,-0.00002124,-0.00001904,0.00000350,0.
 00000228,0.00002719,0.00002158,-0.00019299,0.00096040,-0.00098295,-0.1
 4251954,0.25150772,-0.00001798,-0.00003594,-0.00003622,-0.00003962,0.0
 0001896,0.00002051,0.00011626,0.00004081,0.00008885,-0.00000932,0.0001
 5079,-0.00003193,-0.00001473,-0.00008172,0.00002030,0.00005464,0.00002
 632,0.00000587,0.00001944,0.00004708,-0.00000371,-0.00005189,0.0000106
 5,0.00008066,-0.00005269,-0.00013017,0.00010440,0.00006122,0.00006937,
 -0.00040210,-0.00005582,-0.00000048,-0.00000792,0.00005454,-0.00002847
 ,0.00002811,-0.00000330,0.00006684,-0.00001731,-0.00005452,-0.00001807
 ,0.00013358,-0.00022061,0.00040015,0.00017763,0.00130107,0.00201988,0.
 00732813,-0.00489577,0.00556131,0.00327810,-0.00923736,0.02122749,-0.0
 4038094,0.00351889,-0.00468856,0.00396184,0.00211043,0.00145575,0.0054
 4103,0.00034683,0.00002346,-0.00071794,-0.00023726,-0.00000738,-0.0008
 8972,0.00000140,-0.00000248,-0.00000014,-0.00000773,-0.00000464,0.0000
 0829,0.00001950,-0.00001258,-0.00001026,-0.00000433,-0.00000070,0.0000
 0194,0.00000023,0.00000309,-0.00000432,-0.00000045,-0.00000029,-0.0000
 0337,0.00000195,0.00001173,-0.00002169,0.00000077,0.00000073,0.0000009
 7,0.00000267,0.00000551,-0.00000603,0.00000296,0.00000095,0.00002034,-
 0.00050459,-0.00109155,-0.00446593,0.00859121,-0.02396464,0.02926203,-
 0.00001676,0.00000356,-0.00000132,-0.00000175,-0.00001362,0.00000932,-
 0.00002441,0.00003292,-0.00000982,0.00001873,-0.00004159,0.00009261,-0
 .00000593,-0.00003565,-0.00001694,0.00000148,-0.00000028,-0.00000077,0
 .00002122,0.00000272,0.00000352,0.00004327,0.00006357,0.00004066,-0.00
 015659,0.00013785,-0.00003935,-0.00007549,-0.00003618,0.00001597,0.000
 03061,-0.00001313,-0.00000254,-0.00001640,-0.00000655,-0.00000075,0.00
 006236,-0.00002529,-0.00002144,-0.00009466,0.00004936,0.00004324,0.000
 10019,-0.00010969,-0.00018264,-0.00060407,0.00069625,-0.00007366,-0.00
 521633,0.00128920,0.00180351,-0.00699344,-0.02836327,0.00876022,-0.103
 95596,-0.09755490,0.03688804,0.01071610,0.01759006,-0.00579911,-0.0016
 3619,0.00303946,0.00091932,0.00062090,0.00056277,-0.00025956,0.0000025
 7,-0.00000019,-0.00000130,-0.00001351,0.00000151,-0.00001025,0.0000120
 4,0.00001987,-0.00001614,-0.00000259,-0.00000299,-0.00000094,0.0000006
 4,-0.00000002,-0.00000343,-0.00001604,0.00002103,0.00000626,-0.0000008
 4,-0.00000844,-0.00000022,0.00000396,-0.00000970,0.00000314,-0.0000038
 6,-0.00000015,0.00000175,0.00009332,-0.00001583,-0.00001772,-0.0005058
 3,-0.00127759,0.00014591,0.00122956,0.00035918,-0.00095327,0.10554350,
 0.00001395,0.00002273,0.00001346,0.00003279,0.00002318,-0.00001503,0.0
 0001349,-0.00005466,-0.00001553,-0.00007232,-0.00000214,-0.00008072,0.
 00003655,0.00002238,0.00002823,-0.00002452,0.00000168,-0.00001056,-0.0
 0001600,-0.00005870,-0.00001455,-0.00005086,-0.00005059,-0.00005289,0.
 00020835,-0.00027673,-0.00003049,0.00020731,0.00000083,0.00003964,-0.0
 0005092,-0.00002981,0.00001135,0.00004483,-0.00002023,-0.00001433,-0.0
 0002570,0.00005735,-0.00000734,-0.00008364,-0.00004236,0.00001569,0.00
 003638,0.00022486,-0.00024409,0.00072909,0.00011084,-0.00027684,0.0000
 0139,0.00195456,0.00118126,0.00141558,0.00207778,0.00003239,-0.0965452
 2,-0.26655634,0.07375608,-0.01254727,-0.01701917,0.00766333,0.00408094
 ,-0.00174227,0.00148845,-0.00106298,-0.00036115,0.00037017,0.00000871,
 -0.00000072,0.00000733,0.00002555,0.00000513,0.00001327,-0.00007411,-0
 .00002126,-0.00000505,0.00000855,-0.00000461,-0.00000098,0.00001045,-0
 .00000562,0.00000544,0.00002306,-0.00003764,-0.00002022,0.00000454,-0.
 00000454,0.00000091,-0.00000293,-0.00000843,0.00000660,-0.00000877,-0.
 00000375,0.00000202,0.00001052,0.00000102,0.00001863,0.00014841,0.0000
 0929,0.00005580,-0.00059828,0.00040321,-0.00088985,0.10429897,0.280593
 18,-0.00004037,0.00010779,0.00005978,0.00015510,-0.00002259,-0.0000193
 2,-0.00025404,0.00003598,-0.00020855,0.00012467,0.00002670,0.00010325,
 0.00006988,0.00005731,-0.00001615,-0.00009235,-0.00006280,-0.00003346,
 -0.00007419,-0.00004562,-0.00000462,0.00004468,-0.00006246,-0.00003885
 ,-0.00037322,-0.00016717,-0.00030202,0.00043263,-0.00002786,0.00007987
 ,-0.00011169,-0.00010302,0.00004108,0.00013305,-0.00003740,-0.00004107
 ,-0.00003450,0.00013601,-0.00006491,-0.00015617,-0.00001501,0.00005882
 ,0.00013607,0.00039897,-0.00090103,0.00016290,-0.00113783,-0.00049924,
 0.00214544,0.00115045,0.00534374,-0.00008828,0.00517743,0.00215018,0.0
 3871898,0.07338233,-0.06233204,0.00102756,0.00382319,0.00265270,0.0004
 4596,0.00035612,0.00750235,-0.00017651,0.00065729,0.00025904,-0.000001
 79,-0.00000081,0.00000716,-0.00001473,0.00000376,-0.00001959,-0.000064
 09,0.00009217,0.00003786,-0.00000096,-0.00000254,-0.00000094,-0.000002
 43,-0.00000358,0.00000564,0.00000795,0.00000036,-0.00000853,-0.0000024
 1,0.00000542,0.00000135,0.00000619,0.00000147,0.00002459,0.00000466,0.
 00000453,0.00000265,-0.00000163,-0.00000427,0.00008813,0.00008467,0.00
 039230,0.00011343,-0.00074191,-0.00092395,-0.00309555,-0.04042987,-0.0
 8180091,0.05318286,-0.00012659,0.00004766,0.00033755,-0.00038011,0.000
 27198,0.00001377,-0.00147359,0.00069888,-0.00417940,0.00052859,0.00131
 178,-0.00006674,0.00041793,-0.00042513,0.00015613,-0.00026747,-0.00000
 300,-0.00008602,0.00002346,-0.00000468,-0.00000282,-0.00003950,0.00003
 525,-0.00002666,-0.00003058,-0.00021350,0.00005547,0.00008369,0.000052
 69,0.00007032,-0.00000614,0.00000739,-0.00001559,0.00000782,-0.0000268
 5,-0.00000549,-0.00003792,0.00002783,0.00000485,-0.00001845,-0.0001835
 5,-0.00006073,-0.00037634,0.00035067,0.00000282,0.00140259,-0.00180481
 ,0.00207105,0.00081062,0.00023415,-0.00038202,0.00010836,0.00364354,0.
 00071752,-0.01321677,-0.00331908,0.00450534,-0.32504397,-0.02054610,0.
 07331488,-0.00810266,-0.00007613,0.00148606,-0.00098983,0.00101609,-0.
 00114933,-0.00001725,0.00001253,0.00002793,0.00002253,0.00003681,-0.00
 011285,-0.00159529,0.00226901,-0.00197832,0.00000349,0.00000870,-0.000
 04620,0.00000653,0.00000127,-0.00000113,0.00000506,-0.00001841,0.00000
 533,0.00000125,-0.00001911,-0.00000275,-0.00000084,-0.00000727,0.00000
 189,-0.00000947,-0.00001751,0.00001280,0.00000186,0.00001605,-0.000003
 53,-0.00010080,-0.00003517,-0.00015408,-0.00060947,-0.00021784,0.00015
 724,0.00084021,-0.00019587,-0.00103930,0.34817905,-0.00002340,0.000177
 57,0.00000475,0.00037311,0.00000383,-0.00003578,0.00131434,-0.00017947
 ,0.00134635,-0.00022793,-0.00090400,0.00033465,0.00023150,-0.00027567,
 -0.00021483,-0.00013677,-0.00001051,0.00007076,0.00010674,0.00003096,-
 0.00000785,-0.00008139,0.00017588,0.00008237,-0.00014957,-0.00024863,-
 0.00010956,-0.00004824,0.00010537,0.00003803,0.00004291,-0.00002737,0.
 00000323,0.00001706,-0.00004487,-0.00000574,-0.00007366,0.00005753,0.0
 0004601,-0.00003838,-0.00043791,0.00002531,-0.00128536,0.00049752,-0.0
 0005078,-0.00071207,-0.00449960,0.00262414,-0.00002160,-0.00082677,0.0
 0008504,0.00252095,-0.00350794,0.00233070,0.02708681,0.00557212,-0.005
 51712,-0.01928092,-0.05831319,0.00915153,-0.02687004,0.00165083,0.0055
 0147,-0.00067381,0.00111609,-0.00073936,-0.00002690,0.00002048,-0.0000
 0765,-0.00007741,-0.00002957,-0.00000636,0.00052094,0.00029881,0.00087
 011,-0.00001974,0.00001120,0.00000907,0.00000839,0.00003556,0.00000316
 ,-0.00000008,0.00001072,0.00001193,-0.00001203,-0.00003657,-0.00000201
 ,0.00000372,-0.00000443,-0.00000282,-0.00002373,-0.00003830,-0.0000094
 4,0.00000206,0.00001782,-0.00000547,-0.00005241,0.00003010,-0.00028005
 ,0.00118846,0.00011371,-0.00018336,-0.00065324,0.00079268,-0.00139177,
 0.01707169,0.05866605,-0.00009958,-0.00027184,-0.00017824,-0.00052711,
 -0.00002512,0.00000987,-0.00107555,0.00120262,-0.00102121,0.00043290,0
 .00113356,0.00010710,-0.00012717,-0.00034528,0.00000368,0.00034168,-0.
 00000289,0.00002137,0.00015824,0.00023206,0.00002536,-0.00035199,0.000
 07201,0.00015416,-0.00030346,-0.00085215,0.00001280,0.00024245,0.00004
 174,-0.00025520,-0.00013141,-0.00008624,0.00003926,0.00010128,0.000009
 95,-0.00001764,0.00000935,0.00005258,-0.00001975,-0.00008972,0.0001744
 9,0.00003893,0.00069066,-0.00018197,0.00031357,0.00070350,0.00243403,0
 .00467807,-0.00054426,0.00075832,-0.00065598,0.00011942,0.00154835,0.0
 0695992,-0.00261756,0.00058238,0.00518168,0.07287276,0.01028256,-0.055
 60280,0.00780596,-0.00291647,0.00239207,-0.00106177,0.00021134,-0.0031
 0007,0.00005066,-0.00003929,-0.00001073,-0.00000785,0.00000687,0.00004
 714,-0.00186207,0.00131371,-0.00265604,-0.00001300,-0.00001715,-0.0000
 1250,-0.00000485,-0.00001636,-0.00002038,-0.00001092,-0.00001639,0.000
 00819,0.00001083,0.00001754,-0.00000157,-0.00000018,0.00000231,0.00000
 172,0.00000835,0.00002275,-0.00001644,0.00000091,-0.00001276,0.0000080
 9,-0.00005742,-0.00016167,-0.00088925,-0.00014265,0.00004577,0.0001325
 4,-0.00089244,-0.00123066,-0.00412862,-0.07362801,-0.01396870,0.048450
 90\\-0.00001319,0.00000213,-0.00000151,0.00000311,0.00000012,0.0000006
 1,-0.00000244,0.00001164,0.00000193,0.00003693,-0.00002247,-0.00000159
 ,-0.00002201,0.00002052,0.00000363,0.00000279,-0.00001498,-0.00000300,
 0.00000994,-0.00000164,0.00000088,-0.00000494,0.00001081,0.00000466,-0
 .00001913,-0.00001469,-0.00000422,0.00001714,0.00000281,0.00000438,-0.
 00000212,0.00000139,-0.00000479,-0.00000005,0.00000167,0.00000236,0.,-
 0.00000273,-0.00000072,-0.00000400,0.00000020,0.00000069,0.00001327,0.
 00000980,-0.00000380,-0.00000212,-0.00002059,0.00000352,-0.00000608,0.
 00001135,-0.00000058,0.00000212,-0.00001142,0.00000092,0.00000820,-0.0
 0000153,0.00000238,0.00000694,0.00001345,-0.00000976,-0.00001888,-0.00
 000732,0.00000070,-0.00001280,0.00001686,0.00000634,0.00000212,0.00000
 033,0.00000219,0.00000504,-0.00000342,-0.00000180,0.00000088,-0.000006
 40,-0.00000449,0.00000503,0.00000650,0.00000150,-0.00000537,-0.0000017
 8,-0.00000069,0.00000063,-0.00000521,0.00000097,0.00000213,-0.00000044
 ,-0.00000292,-0.00000059,0.00000078,-0.00000097,0.00000012,-0.00000023
 ,0.00000211,0.00000086,-0.00000333,0.00000088,0.00000370,0.00000726,-0
 .00000002,0.00000089,0.00000326,-0.00000009,-0.00000672,0.00000225,-0.
 00000144,-0.00000140,-0.00000494,0.00000173\\\@
 The archive entry for this job was punched.


 ABSOLUTISM, OBSOLETISM -- IF IT WORKS, IT'S OUT OF DATE

                          -- STAFFORD BEER
 Job cpu time:       0 days  1 hours 27 minutes 52.5 seconds.
 Elapsed time:       0 days  0 hours 10 minutes 59.1 seconds.
 File lengths (MBytes):  RWF=    487 Int=      0 D2E=      0 Chk=     11 Scr=      1
 Normal termination of Gaussian 16 at Tue Oct  8 22:41:48 2024.
