 Entering Gaussian System, Link 0=g16
 Initial command:
 /opt/g16/l1.exe "/tmp/Gau-1276434.inp" -scrdir="/tmp/"
 Entering Link 1 = /opt/g16/l1.exe PID=   1276436.
  
 Copyright (c) 1988-2019, Gaussian, Inc.  All Rights Reserved.
  
 This is part of the Gaussian(R) 16 program.  It is based on
 the Gaussian(R) 09 system (copyright 2009, Gaussian, Inc.),
 the Gaussian(R) 03 system (copyright 2003, Gaussian, Inc.),
 the Gaussian(R) 98 system (copyright 1998, Gaussian, Inc.),
 the Gaussian(R) 94 system (copyright 1995, Gaussian, Inc.),
 the Gaussian 92(TM) system (copyright 1992, Gaussian, Inc.),
 the Gaussian 90(TM) system (copyright 1990, Gaussian, Inc.),
 the Gaussian 88(TM) system (copyright 1988, Gaussian, Inc.),
 the Gaussian 86(TM) system (copyright 1986, Carnegie Mellon
 University), and the Gaussian 82(TM) system (copyright 1983,
 Carnegie Mellon University). Gaussian is a federally registered
 trademark of Gaussian, Inc.
  
 This software contains proprietary and confidential information,
 including trade secrets, belonging to Gaussian, Inc.
  
 This software is provided under written license and may be
 used, copied, transmitted, or stored only in accord with that
 written license.
  
 The following legend is applicable only to US Government
 contracts under FAR:
  
                    RESTRICTED RIGHTS LEGEND
  
 Use, reproduction and disclosure by the US Government is
 subject to restrictions as set forth in subparagraphs (a)
 and (c) of the Commercial Computer Software - Restricted
 Rights clause in FAR 52.227-19.
  
 Gaussian, Inc.
 340 Quinnipiac St., Bldg. 40, Wallingford CT 06492
  
  
 ---------------------------------------------------------------
 Warning -- This program may not be used in any manner that
 competes with the business of Gaussian, Inc. or will provide
 assistance to any competitor of Gaussian, Inc.  The licensee
 of this program is prohibited from giving any competitor of
 Gaussian, Inc. access to this program.  By using this program,
 the user acknowledges that Gaussian, Inc. is engaged in the
 business of creating and licensing software in the field of
 computational chemistry and represents and warrants to the
 licensee that it is not a competitor of Gaussian, Inc. and that
 it will not use this program in any manner prohibited above.
 ---------------------------------------------------------------
  

 Cite this work as:
 Gaussian 16, Revision C.01,
 M. J. Frisch, G. W. Trucks, H. B. Schlegel, G. E. Scuseria, 
 M. A. Robb, J. R. Cheeseman, G. Scalmani, V. Barone, 
 G. A. Petersson, H. Nakatsuji, X. Li, M. Caricato, A. V. Marenich, 
 J. Bloino, B. G. Janesko, R. Gomperts, B. Mennucci, H. P. Hratchian, 
 J. V. Ortiz, A. F. Izmaylov, J. L. Sonnenberg, D. Williams-Young, 
 F. Ding, F. Lipparini, F. Egidi, J. Goings, B. Peng, A. Petrone, 
 T. Henderson, D. Ranasinghe, V. G. Zakrzewski, J. Gao, N. Rega, 
 G. Zheng, W. Liang, M. Hada, M. Ehara, K. Toyota, R. Fukuda, 
 J. Hasegawa, M. Ishida, T. Nakajima, Y. Honda, O. Kitao, H. Nakai, 
 T. Vreven, K. Throssell, J. A. Montgomery, Jr., J. E. Peralta, 
 F. Ogliaro, M. J. Bearpark, J. J. Heyd, E. N. Brothers, K. N. Kudin, 
 V. N. Staroverov, T. A. Keith, R. Kobayashi, J. Normand, 
 K. Raghavachari, A. P. Rendell, J. C. Burant, S. S. Iyengar, 
 J. Tomasi, M. Cossi, J. M. Millam, M. Klene, C. Adamo, R. Cammi, 
 J. W. Ochterski, R. L. Martin, K. Morokuma, O. Farkas, 
 J. B. Foresman, and D. J. Fox, Gaussian, Inc., Wallingford CT, 2019.
 
 ******************************************
 Gaussian 16:  ES64L-G16RevC.01  3-Jul-2019
                 8-Oct-2024 
 ******************************************
 %nprocshared=8
 Will use up to    8 processors via shared memory.
 %mem=10400MB
 ----------------------------------------------------------------------
 #N opt freq B3LYP/def2SVPP symm=veryloose em=gd3bj scale=0.961 press=0
 .987
 ----------------------------------------------------------------------
 1/18=20,19=15,26=3,38=1,113=-987000,114=961000/1,3;
 2/9=110,12=2,17=2,18=2,40=1/2;
 3/5=43,7=202,11=2,25=1,30=1,71=1,74=-5,124=41/1,2,3;
 4//1;
 5/5=2,38=5/2;
 6/7=2,8=2,9=2,10=2,28=1/1;
 7//1,2,3,16;
 1/18=20,19=15,26=3/3(2);
 2/9=110/2;
 99//99;
 2/9=110/2;
 3/5=43,7=202,11=2,25=1,30=1,71=1,74=-5,124=41/1,2,3;
 4/5=5,16=3,69=1/1;
 5/5=2,38=5/2;
 7//1,2,3,16;
 1/18=20,19=15,26=3/3(-5);
 2/9=110/2;
 6/7=2,8=2,9=2,10=2,19=2,28=1/1;
 99/9=1/99;
 --------------------------------------------
 c1ccc2c(c1)ccc1cc3cc4c(ccc5ccccc54)cc3cc12_2
 --------------------------------------------
 Symbolic Z-matrix:
 Charge =  0 Multiplicity = 1
 C                     6.7888    0.8722   -0.2068 
 C                     5.8898    1.9267   -0.176 
 C                     4.5167    1.6708   -0.1083 
 C                     3.9921    0.3536   -0.069 
 C                     4.9357   -0.7054   -0.1018 
 C                     6.3133   -0.4356   -0.1699 
 C                     4.4971   -2.0309   -0.0664 
 C                     3.1398   -2.3312    0.001 
 C                     2.1809   -1.3151    0.035 
 C                     0.8178   -1.6528    0.1031 
 C                    -0.1858   -0.6737    0.1397 
 C                    -1.552    -1.0111    0.208 
 C                    -2.5861   -0.0407    0.2461 
 C                    -2.1809    1.3151    0.2119 
 C                    -3.1398    2.3312    0.246 
 C                    -4.4971    2.0309    0.3134 
 C                    -4.9357    0.7054    0.3488 
 C                    -6.3133    0.4356    0.4168 
 C                    -6.7888   -0.8722    0.4537 
 C                    -5.8898   -1.9267    0.4229 
 C                    -4.5167   -1.6708    0.3553 
 C                    -3.9921   -0.3536    0.3159 
 C                    -0.8178    1.6528    0.1438 
 C                     0.1858    0.6737    0.1073 
 C                     1.552     1.0111    0.039 
 C                     2.5861    0.0407    0.0009 
 H                     7.857     1.0637   -0.2593 
 H                     6.2499    2.9518   -0.2043 
 H                     3.8577    2.5338   -0.0867 
 H                     7.0333   -1.2513   -0.1948 
 H                     5.2116   -2.8511   -0.0911 
 H                     2.8398   -3.3768    0.0267 
 H                     0.5304   -2.7029    0.1283 
 H                    -1.8048   -2.0676    0.2316 
 H                    -2.8398    3.3768    0.2202 
 H                    -5.2116    2.8511    0.3381 
 H                    -7.0333    1.2513    0.4418 
 H                    -7.857    -1.0637    0.5063 
 H                    -6.2498   -2.9518    0.4513 
 H                    -3.8577   -2.5338    0.3337 
 H                    -0.5304    2.7029    0.1186 
 H                     1.8048    2.0676    0.0154 
 

 GradGradGradGradGradGradGradGradGradGradGradGradGradGradGradGradGradGrad
 Berny optimization.
 Initialization pass.
                           ----------------------------
                           !    Initial Parameters    !
                           ! (Angstroms and Degrees)  !
 --------------------------                            --------------------------
 ! Name  Definition              Value          Derivative Info.                !
 --------------------------------------------------------------------------------
 ! R1    R(1,2)                  1.386          estimate D2E/DX2                !
 ! R2    R(1,6)                  1.392          estimate D2E/DX2                !
 ! R3    R(1,27)                 1.0865         estimate D2E/DX2                !
 ! R4    R(2,3)                  1.3984         estimate D2E/DX2                !
 ! R5    R(2,28)                 1.0869         estimate D2E/DX2                !
 ! R6    R(3,4)                  1.4184         estimate D2E/DX2                !
 ! R7    R(3,29)                 1.0861         estimate D2E/DX2                !
 ! R8    R(4,5)                  1.4188         estimate D2E/DX2                !
 ! R9    R(4,26)                 1.4421         estimate D2E/DX2                !
 ! R10   R(5,6)                  1.4054         estimate D2E/DX2                !
 ! R11   R(5,7)                  1.3966         estimate D2E/DX2                !
 ! R12   R(6,30)                 1.0883         estimate D2E/DX2                !
 ! R13   R(7,8)                  1.3918         estimate D2E/DX2                !
 ! R14   R(7,31)                 1.088          estimate D2E/DX2                !
 ! R15   R(8,9)                  1.3975         estimate D2E/DX2                !
 ! R16   R(8,32)                 1.0881         estimate D2E/DX2                !
 ! R17   R(9,10)                 1.406          estimate D2E/DX2                !
 ! R18   R(9,26)                 1.4155         estimate D2E/DX2                !
 ! R19   R(10,11)                1.4026         estimate D2E/DX2                !
 ! R20   R(10,33)                1.089          estimate D2E/DX2                !
 ! R21   R(11,12)                1.4089         estimate D2E/DX2                !
 ! R22   R(11,24)                1.3981         estimate D2E/DX2                !
 ! R23   R(12,13)                1.4186         estimate D2E/DX2                !
 ! R24   R(12,34)                1.0866         estimate D2E/DX2                !
 ! R25   R(13,14)                1.4155         estimate D2E/DX2                !
 ! R26   R(13,22)                1.4421         estimate D2E/DX2                !
 ! R27   R(14,15)                1.3975         estimate D2E/DX2                !
 ! R28   R(14,23)                1.406          estimate D2E/DX2                !
 ! R29   R(15,16)                1.3918         estimate D2E/DX2                !
 ! R30   R(15,35)                1.0881         estimate D2E/DX2                !
 ! R31   R(16,17)                1.3966         estimate D2E/DX2                !
 ! R32   R(16,36)                1.088          estimate D2E/DX2                !
 ! R33   R(17,18)                1.4054         estimate D2E/DX2                !
 ! R34   R(17,22)                1.4188         estimate D2E/DX2                !
 ! R35   R(18,19)                1.392          estimate D2E/DX2                !
 ! R36   R(18,37)                1.0883         estimate D2E/DX2                !
 ! R37   R(19,20)                1.386          estimate D2E/DX2                !
 ! R38   R(19,38)                1.0865         estimate D2E/DX2                !
 ! R39   R(20,21)                1.3984         estimate D2E/DX2                !
 ! R40   R(20,39)                1.0868         estimate D2E/DX2                !
 ! R41   R(21,22)                1.4184         estimate D2E/DX2                !
 ! R42   R(21,40)                1.0861         estimate D2E/DX2                !
 ! R43   R(23,24)                1.4026         estimate D2E/DX2                !
 ! R44   R(23,41)                1.089          estimate D2E/DX2                !
 ! R45   R(24,25)                1.4089         estimate D2E/DX2                !
 ! R46   R(25,26)                1.4186         estimate D2E/DX2                !
 ! R47   R(25,42)                1.0866         estimate D2E/DX2                !
 ! A1    A(2,1,6)              119.5123         estimate D2E/DX2                !
 ! A2    A(2,1,27)             120.3091         estimate D2E/DX2                !
 ! A3    A(6,1,27)             120.1786         estimate D2E/DX2                !
 ! A4    A(1,2,3)              119.9163         estimate D2E/DX2                !
 ! A5    A(1,2,28)             120.1378         estimate D2E/DX2                !
 ! A6    A(3,2,28)             119.9459         estimate D2E/DX2                !
 ! A7    A(2,3,4)              122.3074         estimate D2E/DX2                !
 ! A8    A(2,3,29)             116.8311         estimate D2E/DX2                !
 ! A9    A(4,3,29)             120.8615         estimate D2E/DX2                !
 ! A10   A(3,4,5)              116.5225         estimate D2E/DX2                !
 ! A11   A(3,4,26)             124.2946         estimate D2E/DX2                !
 ! A12   A(5,4,26)             119.1829         estimate D2E/DX2                !
 ! A13   A(4,5,6)              120.6467         estimate D2E/DX2                !
 ! A14   A(4,5,7)              119.9308         estimate D2E/DX2                !
 ! A15   A(6,5,7)              119.4226         estimate D2E/DX2                !
 ! A16   A(1,6,5)              121.0949         estimate D2E/DX2                !
 ! A17   A(1,6,30)             118.5265         estimate D2E/DX2                !
 ! A18   A(5,6,30)             120.3785         estimate D2E/DX2                !
 ! A19   A(5,7,8)              120.8155         estimate D2E/DX2                !
 ! A20   A(5,7,31)             120.5729         estimate D2E/DX2                !
 ! A21   A(8,7,31)             118.6115         estimate D2E/DX2                !
 ! A22   A(7,8,9)              120.8938         estimate D2E/DX2                !
 ! A23   A(7,8,32)             118.5141         estimate D2E/DX2                !
 ! A24   A(9,8,32)             120.5921         estimate D2E/DX2                !
 ! A25   A(8,9,10)             119.4566         estimate D2E/DX2                !
 ! A26   A(8,9,26)             119.9612         estimate D2E/DX2                !
 ! A27   A(10,9,26)            120.5822         estimate D2E/DX2                !
 ! A28   A(9,10,11)            121.8249         estimate D2E/DX2                !
 ! A29   A(9,10,33)            119.2483         estimate D2E/DX2                !
 ! A30   A(11,10,33)           118.9268         estimate D2E/DX2                !
 ! A31   A(10,11,12)           121.867          estimate D2E/DX2                !
 ! A32   A(10,11,24)           118.8149         estimate D2E/DX2                !
 ! A33   A(12,11,24)           119.3181         estimate D2E/DX2                !
 ! A34   A(11,12,13)           122.9797         estimate D2E/DX2                !
 ! A35   A(11,12,34)           117.3552         estimate D2E/DX2                !
 ! A36   A(13,12,34)           119.6651         estimate D2E/DX2                !
 ! A37   A(12,13,14)           116.4801         estimate D2E/DX2                !
 ! A38   A(12,13,22)           124.304          estimate D2E/DX2                !
 ! A39   A(14,13,22)           119.2159         estimate D2E/DX2                !
 ! A40   A(13,14,15)           119.9609         estimate D2E/DX2                !
 ! A41   A(13,14,23)           120.5824         estimate D2E/DX2                !
 ! A42   A(15,14,23)           119.4567         estimate D2E/DX2                !
 ! A43   A(14,15,16)           120.894          estimate D2E/DX2                !
 ! A44   A(14,15,35)           120.5917         estimate D2E/DX2                !
 ! A45   A(16,15,35)           118.5143         estimate D2E/DX2                !
 ! A46   A(15,16,17)           120.8155         estimate D2E/DX2                !
 ! A47   A(15,16,36)           118.6115         estimate D2E/DX2                !
 ! A48   A(17,16,36)           120.5729         estimate D2E/DX2                !
 ! A49   A(16,17,18)           119.4226         estimate D2E/DX2                !
 ! A50   A(16,17,22)           119.9306         estimate D2E/DX2                !
 ! A51   A(18,17,22)           120.6468         estimate D2E/DX2                !
 ! A52   A(17,18,19)           121.0949         estimate D2E/DX2                !
 ! A53   A(17,18,37)           120.3788         estimate D2E/DX2                !
 ! A54   A(19,18,37)           118.5263         estimate D2E/DX2                !
 ! A55   A(18,19,20)           119.5123         estimate D2E/DX2                !
 ! A56   A(18,19,38)           120.1786         estimate D2E/DX2                !
 ! A57   A(20,19,38)           120.3091         estimate D2E/DX2                !
 ! A58   A(19,20,21)           119.9163         estimate D2E/DX2                !
 ! A59   A(19,20,39)           120.1426         estimate D2E/DX2                !
 ! A60   A(21,20,39)           119.9412         estimate D2E/DX2                !
 ! A61   A(20,21,22)           122.3075         estimate D2E/DX2                !
 ! A62   A(20,21,40)           116.8311         estimate D2E/DX2                !
 ! A63   A(22,21,40)           120.8613         estimate D2E/DX2                !
 ! A64   A(13,22,17)           119.1831         estimate D2E/DX2                !
 ! A65   A(13,22,21)           124.2948         estimate D2E/DX2                !
 ! A66   A(17,22,21)           116.5221         estimate D2E/DX2                !
 ! A67   A(14,23,24)           121.8247         estimate D2E/DX2                !
 ! A68   A(14,23,41)           119.2483         estimate D2E/DX2                !
 ! A69   A(24,23,41)           118.927          estimate D2E/DX2                !
 ! A70   A(11,24,23)           118.8151         estimate D2E/DX2                !
 ! A71   A(11,24,25)           119.3181         estimate D2E/DX2                !
 ! A72   A(23,24,25)           121.8669         estimate D2E/DX2                !
 ! A73   A(24,25,26)           122.9797         estimate D2E/DX2                !
 ! A74   A(24,25,42)           117.3552         estimate D2E/DX2                !
 ! A75   A(26,25,42)           119.6651         estimate D2E/DX2                !
 ! A76   A(4,26,9)             119.2158         estimate D2E/DX2                !
 ! A77   A(4,26,25)            124.304          estimate D2E/DX2                !
 ! A78   A(9,26,25)            116.4803         estimate D2E/DX2                !
 ! D1    D(6,1,2,3)              0.0018         estimate D2E/DX2                !
 ! D2    D(6,1,2,28)           179.9983         estimate D2E/DX2                !
 ! D3    D(27,1,2,3)          -179.9949         estimate D2E/DX2                !
 ! D4    D(27,1,2,28)            0.0016         estimate D2E/DX2                !
 ! D5    D(2,1,6,5)             -0.0034         estimate D2E/DX2                !
 ! D6    D(2,1,6,30)          -179.9949         estimate D2E/DX2                !
 ! D7    D(27,1,6,5)           179.9933         estimate D2E/DX2                !
 ! D8    D(27,1,6,30)            0.0018         estimate D2E/DX2                !
 ! D9    D(1,2,3,4)             -0.0029         estimate D2E/DX2                !
 ! D10   D(1,2,3,29)           179.9989         estimate D2E/DX2                !
 ! D11   D(28,2,3,4)          -179.9995         estimate D2E/DX2                !
 ! D12   D(28,2,3,29)            0.0024         estimate D2E/DX2                !
 ! D13   D(2,3,4,5)              0.0054         estimate D2E/DX2                !
 ! D14   D(2,3,4,26)           179.9992         estimate D2E/DX2                !
 ! D15   D(29,3,4,5)          -179.9965         estimate D2E/DX2                !
 ! D16   D(29,3,4,26)           -0.0027         estimate D2E/DX2                !
 ! D17   D(3,4,5,6)             -0.0069         estimate D2E/DX2                !
 ! D18   D(3,4,5,7)            179.997          estimate D2E/DX2                !
 ! D19   D(26,4,5,6)           179.999          estimate D2E/DX2                !
 ! D20   D(26,4,5,7)             0.0028         estimate D2E/DX2                !
 ! D21   D(3,4,26,9)          -179.9991         estimate D2E/DX2                !
 ! D22   D(3,4,26,25)            0.0044         estimate D2E/DX2                !
 ! D23   D(5,4,26,9)            -0.0055         estimate D2E/DX2                !
 ! D24   D(5,4,26,25)          179.9981         estimate D2E/DX2                !
 ! D25   D(4,5,6,1)              0.0061         estimate D2E/DX2                !
 ! D26   D(4,5,6,30)           179.9974         estimate D2E/DX2                !
 ! D27   D(7,5,6,1)           -179.9977         estimate D2E/DX2                !
 ! D28   D(7,5,6,30)            -0.0064         estimate D2E/DX2                !
 ! D29   D(4,5,7,8)              0.0            estimate D2E/DX2                !
 ! D30   D(4,5,7,31)           179.9959         estimate D2E/DX2                !
 ! D31   D(6,5,7,8)           -179.9963         estimate D2E/DX2                !
 ! D32   D(6,5,7,31)            -0.0003         estimate D2E/DX2                !
 ! D33   D(5,7,8,9)             -0.0001         estimate D2E/DX2                !
 ! D34   D(5,7,8,32)           179.9968         estimate D2E/DX2                !
 ! D35   D(31,7,8,9)          -179.9961         estimate D2E/DX2                !
 ! D36   D(31,7,8,32)            0.0007         estimate D2E/DX2                !
 ! D37   D(7,8,9,10)          -179.9995         estimate D2E/DX2                !
 ! D38   D(7,8,9,26)            -0.0027         estimate D2E/DX2                !
 ! D39   D(32,8,9,10)            0.0038         estimate D2E/DX2                !
 ! D40   D(32,8,9,26)         -179.9995         estimate D2E/DX2                !
 ! D41   D(8,9,10,11)          179.9962         estimate D2E/DX2                !
 ! D42   D(8,9,10,33)           -0.001          estimate D2E/DX2                !
 ! D43   D(26,9,10,11)          -0.0005         estimate D2E/DX2                !
 ! D44   D(26,9,10,33)        -179.9978         estimate D2E/DX2                !
 ! D45   D(8,9,26,4)             0.0054         estimate D2E/DX2                !
 ! D46   D(8,9,26,25)         -179.9979         estimate D2E/DX2                !
 ! D47   D(10,9,26,4)         -179.9978         estimate D2E/DX2                !
 ! D48   D(10,9,26,25)          -0.0011         estimate D2E/DX2                !
 ! D49   D(9,10,11,12)        -179.9973         estimate D2E/DX2                !
 ! D50   D(9,10,11,24)          -0.0004         estimate D2E/DX2                !
 ! D51   D(33,10,11,12)         -0.0001         estimate D2E/DX2                !
 ! D52   D(33,10,11,24)        179.9968         estimate D2E/DX2                !
 ! D53   D(10,11,12,13)       -179.9982         estimate D2E/DX2                !
 ! D54   D(10,11,12,34)         -0.0021         estimate D2E/DX2                !
 ! D55   D(24,11,12,13)          0.005          estimate D2E/DX2                !
 ! D56   D(24,11,12,34)       -179.9989         estimate D2E/DX2                !
 ! D57   D(10,11,24,23)        179.9953         estimate D2E/DX2                !
 ! D58   D(10,11,24,25)          0.0031         estimate D2E/DX2                !
 ! D59   D(12,11,24,23)         -0.0077         estimate D2E/DX2                !
 ! D60   D(12,11,24,25)        180.0            estimate D2E/DX2                !
 ! D61   D(11,12,13,14)          0.0006         estimate D2E/DX2                !
 ! D62   D(11,12,13,22)        179.9948         estimate D2E/DX2                !
 ! D63   D(34,12,13,14)       -179.9954         estimate D2E/DX2                !
 ! D64   D(34,12,13,22)         -0.0013         estimate D2E/DX2                !
 ! D65   D(12,13,14,15)       -179.9971         estimate D2E/DX2                !
 ! D66   D(12,13,14,23)         -0.0033         estimate D2E/DX2                !
 ! D67   D(22,13,14,15)          0.0084         estimate D2E/DX2                !
 ! D68   D(22,13,14,23)       -179.9978         estimate D2E/DX2                !
 ! D69   D(12,13,22,17)        179.9978         estimate D2E/DX2                !
 ! D70   D(12,13,22,21)          0.0059         estimate D2E/DX2                !
 ! D71   D(14,13,22,17)         -0.0082         estimate D2E/DX2                !
 ! D72   D(14,13,22,21)        179.9999         estimate D2E/DX2                !
 ! D73   D(13,14,15,16)         -0.0068         estimate D2E/DX2                !
 ! D74   D(13,14,15,35)       -179.999          estimate D2E/DX2                !
 ! D75   D(23,14,15,16)        179.9993         estimate D2E/DX2                !
 ! D76   D(23,14,15,35)          0.0071         estimate D2E/DX2                !
 ! D77   D(13,14,23,24)          0.0004         estimate D2E/DX2                !
 ! D78   D(13,14,23,41)       -179.9975         estimate D2E/DX2                !
 ! D79   D(15,14,23,24)        179.9943         estimate D2E/DX2                !
 ! D80   D(15,14,23,41)         -0.0037         estimate D2E/DX2                !
 ! D81   D(14,15,16,17)          0.0048         estimate D2E/DX2                !
 ! D82   D(14,15,16,36)       -179.9991         estimate D2E/DX2                !
 ! D83   D(35,15,16,17)        179.9973         estimate D2E/DX2                !
 ! D84   D(35,15,16,36)         -0.0067         estimate D2E/DX2                !
 ! D85   D(15,16,17,18)       -179.9991         estimate D2E/DX2                !
 ! D86   D(15,16,17,22)         -0.0046         estimate D2E/DX2                !
 ! D87   D(36,16,17,18)          0.005          estimate D2E/DX2                !
 ! D88   D(36,16,17,22)        179.9994         estimate D2E/DX2                !
 ! D89   D(16,17,18,19)        179.9978         estimate D2E/DX2                !
 ! D90   D(16,17,18,37)         -0.0044         estimate D2E/DX2                !
 ! D91   D(22,17,18,19)          0.0034         estimate D2E/DX2                !
 ! D92   D(22,17,18,37)       -179.9988         estimate D2E/DX2                !
 ! D93   D(16,17,22,13)          0.0063         estimate D2E/DX2                !
 ! D94   D(16,17,22,21)        179.9988         estimate D2E/DX2                !
 ! D95   D(18,17,22,13)       -179.9993         estimate D2E/DX2                !
 ! D96   D(18,17,22,21)         -0.0068         estimate D2E/DX2                !
 ! D97   D(17,18,19,20)         -0.0014         estimate D2E/DX2                !
 ! D98   D(17,18,19,38)        179.9959         estimate D2E/DX2                !
 ! D99   D(37,18,19,20)       -179.9992         estimate D2E/DX2                !
 ! D100  D(37,18,19,38)         -0.0019         estimate D2E/DX2                !
 ! D101  D(18,19,20,21)          0.003          estimate D2E/DX2                !
 ! D102  D(18,19,20,39)        179.9953         estimate D2E/DX2                !
 ! D103  D(38,19,20,21)       -179.9943         estimate D2E/DX2                !
 ! D104  D(38,19,20,39)         -0.0019         estimate D2E/DX2                !
 ! D105  D(19,20,21,22)         -0.0068         estimate D2E/DX2                !
 ! D106  D(19,20,21,40)       -179.9992         estimate D2E/DX2                !
 ! D107  D(39,20,21,22)       -179.9992         estimate D2E/DX2                !
 ! D108  D(39,20,21,40)          0.0084         estimate D2E/DX2                !
 ! D109  D(20,21,22,13)       -179.9993         estimate D2E/DX2                !
 ! D110  D(20,21,22,17)          0.0086         estimate D2E/DX2                !
 ! D111  D(40,21,22,13)         -0.0072         estimate D2E/DX2                !
 ! D112  D(40,21,22,17)       -179.9994         estimate D2E/DX2                !
 ! D113  D(14,23,24,11)          0.0052         estimate D2E/DX2                !
 ! D114  D(14,23,24,25)        179.9973         estimate D2E/DX2                !
 ! D115  D(41,23,24,11)       -179.9968         estimate D2E/DX2                !
 ! D116  D(41,23,24,25)         -0.0047         estimate D2E/DX2                !
 ! D117  D(11,24,25,26)         -0.005          estimate D2E/DX2                !
 ! D118  D(11,24,25,42)        179.9989         estimate D2E/DX2                !
 ! D119  D(23,24,25,26)       -179.997          estimate D2E/DX2                !
 ! D120  D(23,24,25,42)          0.0069         estimate D2E/DX2                !
 ! D121  D(24,25,26,4)        -179.9996         estimate D2E/DX2                !
 ! D122  D(24,25,26,9)           0.0039         estimate D2E/DX2                !
 ! D123  D(42,25,26,4)          -0.0035         estimate D2E/DX2                !
 ! D124  D(42,25,26,9)         180.0            estimate D2E/DX2                !
 --------------------------------------------------------------------------------
 Trust Radius=3.00D-01 FncErr=1.00D-07 GrdErr=1.00D-06 EigMax=2.50D+02 EigMin=1.00D-04
 Number of steps in this run=    252 maximum allowed number of steps=    252.
 GradGradGradGradGradGradGradGradGradGradGradGradGradGradGradGradGradGrad

                          Input orientation:                          
 ---------------------------------------------------------------------
 Center     Atomic      Atomic             Coordinates (Angstroms)
 Number     Number       Type             X           Y           Z
 ---------------------------------------------------------------------
      1          6           0        6.788800    0.872200   -0.206800
      2          6           0        5.889800    1.926700   -0.176000
      3          6           0        4.516700    1.670800   -0.108300
      4          6           0        3.992100    0.353600   -0.069000
      5          6           0        4.935700   -0.705400   -0.101800
      6          6           0        6.313300   -0.435600   -0.169900
      7          6           0        4.497100   -2.030900   -0.066400
      8          6           0        3.139800   -2.331200    0.001000
      9          6           0        2.180900   -1.315100    0.035000
     10          6           0        0.817800   -1.652800    0.103100
     11          6           0       -0.185800   -0.673700    0.139700
     12          6           0       -1.552000   -1.011100    0.208000
     13          6           0       -2.586100   -0.040700    0.246100
     14          6           0       -2.180900    1.315100    0.211900
     15          6           0       -3.139800    2.331200    0.246000
     16          6           0       -4.497100    2.030900    0.313400
     17          6           0       -4.935700    0.705400    0.348800
     18          6           0       -6.313300    0.435600    0.416800
     19          6           0       -6.788800   -0.872200    0.453700
     20          6           0       -5.889800   -1.926700    0.422900
     21          6           0       -4.516700   -1.670800    0.355300
     22          6           0       -3.992100   -0.353600    0.315900
     23          6           0       -0.817800    1.652800    0.143800
     24          6           0        0.185800    0.673700    0.107300
     25          6           0        1.552000    1.011100    0.039000
     26          6           0        2.586100    0.040700    0.000900
     27          1           0        7.857000    1.063700   -0.259300
     28          1           0        6.249900    2.951800   -0.204300
     29          1           0        3.857700    2.533800   -0.086700
     30          1           0        7.033300   -1.251300   -0.194800
     31          1           0        5.211600   -2.851100   -0.091100
     32          1           0        2.839800   -3.376800    0.026700
     33          1           0        0.530400   -2.702900    0.128300
     34          1           0       -1.804800   -2.067600    0.231600
     35          1           0       -2.839800    3.376800    0.220200
     36          1           0       -5.211600    2.851100    0.338100
     37          1           0       -7.033300    1.251300    0.441800
     38          1           0       -7.857000   -1.063700    0.506300
     39          1           0       -6.249800   -2.951800    0.451300
     40          1           0       -3.857700   -2.533800    0.333700
     41          1           0       -0.530400    2.702900    0.118600
     42          1           0        1.804800    2.067600    0.015400
 ---------------------------------------------------------------------
                    Distance matrix (angstroms):
                    1          2          3          4          5
     1  C    0.000000
     2  C    1.386045   0.000000
     3  C    2.410374   1.398382   0.000000
     4  C    2.847712   2.467257   1.418367   0.000000
     5  C    2.435945   2.800672   2.412868   1.418780   0.000000
     6  C    1.392050   2.399969   2.769203   2.453770   1.405422
     7  C    3.701296   4.196930   3.701989   2.437390   1.396629
     8  C    4.860057   5.071838   4.233651   2.817706   2.424675
     9  C    5.106417   4.930490   3.793692   2.464918   2.824778
    10  C    6.490339   6.214169   4.977235   3.759181   4.230443
    11  C    7.152266   6.616242   5.260389   4.307406   5.127289
    12  C    8.560831   8.009901   6.642421   5.716308   6.502283
    13  C    9.430125   8.711470   7.314684   6.597536   7.559123
    14  C    8.990383   8.103130   6.714678   6.253744   7.404514
    15  C   10.045437   9.048502   7.693091   7.407707   8.634559
    16  C   11.357145  10.398945   9.030841   8.661760   9.830435
    17  C   11.738842  10.906807   9.512560   8.944492   9.981880
    18  C   13.124196  12.308145  10.912852  10.317170  11.318605
    19  C   13.705124  12.999125  11.601596  10.862946  11.738837
    20  C   12.999125  12.408318  11.023585  10.153506  10.906802
    21  C   11.601601  11.023590   9.642797   8.756592   9.512560
    22  C   10.862946  10.153506   8.756587   8.024695   8.944487
    23  C    7.654582   6.720803   5.340484   4.986817   6.222876
    24  C    6.613446   5.846870   4.449425   3.823802   4.950474
    25  C    5.244405   4.438587   3.040781   2.529438   3.796791
    26  C    4.289198   3.808244   2.529104   1.442092   2.467353
    27  H    1.086499   2.149787   3.398378   3.934197   3.418847
    28  H    2.148291   1.086878   2.157350   3.444795   3.887511
    29  H    3.371452   2.122728   1.086056   2.184410   3.413902
    30  H    2.137563   3.377518   3.857386   3.440992   2.169466
    31  H    4.045233   4.826441   4.575015   3.428961   2.163392
    32  H    5.805439   6.121332   5.320572   3.905488   3.397894
    33  H    7.215345   7.088650   5.922484   4.622173   4.842481
    34  H    9.093106   8.679138   7.352042   6.289405   6.884845
    35  H    9.958177   8.858086   7.558865   7.476512   8.787858
    36  H   12.174669  11.151677   9.809801   9.545226  10.761501
    37  H   13.842501  12.955476  11.570700  11.073673  12.140063
    38  H   14.790391  14.084834  12.687146  11.947421  12.812156
    39  H   13.603719  13.098212  11.730264  10.774641  11.422243
    40  H   11.191110  10.731711   9.381077   8.373685   8.992029
    41  H    7.551691   6.473658   5.156543   5.099746   6.445412
    42  H    5.130167   4.091908   2.743566   2.780144   4.183993
                    6          7          8          9         10
     6  C    0.000000
     7  C    2.419561   0.000000
     8  C    3.700488   1.391756   0.000000
     9  C    4.229921   2.426404   1.397535   0.000000
    10  C    5.635302   3.702558   2.421226   1.405959   0.000000
    11  C    6.510825   4.879961   3.718354   2.454307   1.402565
    12  C    7.895375   6.140594   4.878371   3.749252   2.457384
    13  C    8.917865   7.364121   6.171904   4.938922   3.769065
    14  C    8.681138   7.474547   6.453668   5.096523   4.220482
    15  C    9.858461   8.800440   7.825048   6.453671   5.617408
    16  C   11.098736   9.876138   8.800440   7.474551   6.470088
    17  C   11.318610   9.830435   8.634559   7.404518   6.222880
    18  C   12.670210  11.098732   9.858457   8.681138   7.437231
    19  C   13.124196  11.357140  10.045433   8.990383   7.654582
    20  C   12.308145  10.398941   9.048497   8.103130   6.720803
    21  C   10.912857   9.030841   7.693091   6.714682   5.340489
    22  C   10.317170   8.661755   7.407703   6.253744   4.986817
    23  C    7.437231   6.470084   5.617406   4.220482   3.688338
    24  C    6.233269   5.092381   4.215073   2.817974   2.410818
    25  C    4.980618   4.235385   3.700476   2.409717   2.763968
    26  C    3.761390   2.819216   2.435671   1.415466   2.450566
    27  H    2.153811   4.571946   5.817652   6.161446   7.553876
    28  H    3.388168   5.283808   6.133919   5.900886   7.127731
    29  H    3.854119   4.609309   4.918465   4.200060   5.177319
    30  H    1.088295   2.656421   4.045227   4.858257   6.235574
    31  H    2.656048   1.088048   2.138021   3.400050   4.558411
    32  H    4.555712   2.136997   1.088090   2.164446   2.658288
    33  H    6.218642   4.027928   2.638813   2.158436   1.089010
    34  H    8.290246   6.309049   4.956988   4.060876   2.658308
    35  H    9.922994   9.118962   8.269518   6.874275   6.220018
    36  H   11.995157  10.874576   9.834417   8.491063   7.529542
    37  H   13.466683  11.999218  10.794470   9.573577   8.377845
    38  H   14.200322  12.405130  11.081132  10.052102   8.704123
    39  H   12.827651  10.798700   9.420855   8.598186   7.194415
    40  H   10.397370   8.379479   7.008334   6.167588   4.763364
    41  H    7.534563   6.907883   6.231080   4.847934   4.559606
    42  H    5.160128   4.904373   4.596942   3.403600   3.850096
                   11         12         13         14         15
    11  C    0.000000
    12  C    1.408902   0.000000
    13  C    2.484643   1.418623   0.000000
    14  C    2.817971   2.409717   1.415468   0.000000
    15  C    4.215073   3.700476   2.435671   1.397538   0.000000
    16  C    5.092381   4.235385   2.819216   2.426408   1.391756
    17  C    4.950474   3.796791   2.467353   2.824783   2.424675
    18  C    6.233265   4.980614   3.761385   4.229921   3.700483
    19  C    6.613441   5.244400   4.289193   5.106417   4.860053
    20  C    5.846865   4.438582   3.808239   4.930490   5.071835
    21  C    4.449425   3.040781   2.529104   3.793695   4.233651
    22  C    3.823798   2.529434   1.442087   2.464918   2.817703
    23  C    2.410818   2.763971   2.450570   1.405959   2.421230
    24  C    1.398078   2.422528   2.865844   2.454303   3.718354
    25  C    2.422528   3.708459   4.274698   3.749247   4.878371
    26  C    2.865844   4.274698   5.178649   4.938917   6.171904
    27  H    8.237985   9.646370  10.513490  10.052098  11.081132
    28  H    7.394648   8.760377   9.339851   8.598279   9.420954
    29  H    5.166160   6.474413   6.947040   6.167583   7.008334
    30  H    7.249891   8.598100   9.705298   9.573573  10.794470
    31  H    5.824626   7.015793   8.295552   8.491059   9.834417
    32  H    4.058790   4.991724   6.373232   6.874275   8.269521
    33  H    2.151912   2.684200   4.100458   4.847934   6.231082
    34  H    2.138355   1.086580   2.172318   3.403601   4.596942
    35  H    4.843217   4.572991   3.427002   2.164446   1.088092
    36  H    6.141844   5.322235   3.906945   3.400054   2.138021
    37  H    7.119350   5.934456   4.635208   4.858262   4.045227
    38  H    7.689851   6.312272   5.375558   6.161450   5.817652
    39  H    6.485286   5.088697   4.683941   5.900822   6.133868
    40  H    4.120735   2.765984   2.800034   4.200062   4.918465
    41  H    3.394204   3.852980   3.430670   2.158436   2.638818
    42  H    3.390083   4.558903   4.876285   4.060871   4.956988
                   16         17         18         19         20
    16  C    0.000000
    17  C    1.396629   0.000000
    18  C    2.419557   1.405417   0.000000
    19  C    3.701292   2.435940   1.392050   0.000000
    20  C    4.196928   2.800669   2.399969   1.386045   0.000000
    21  C    3.701989   2.412868   2.769201   2.410370   1.398377
    22  C    2.437390   1.418783   2.453770   2.847712   2.467257
    23  C    3.702563   4.230448   5.635302   6.490339   6.214169
    24  C    4.879961   5.127289   6.510820   7.152262   6.616238
    25  C    6.140594   6.502283   7.895371   8.560826   8.009896
    26  C    7.364121   7.559123   8.917861   9.430120   8.711465
    27  H   12.405130  12.812156  14.200318  14.790387  14.084829
    28  H   10.798800  11.422341  12.827744  13.603810  13.098300
    29  H    8.379479   8.992029  10.397365  11.191105  10.731706
    30  H   11.999218  12.140063  13.466678  13.842497  12.955471
    31  H   10.874576  10.761501  11.995152  12.174664  11.151672
    32  H    9.118965   8.787861   9.922994   9.958177   8.858086
    33  H    6.907885   6.445415   7.534563   7.551691   6.473658
    34  H    4.904373   4.183993   5.160124   5.130162   4.091903
    35  H    2.137002   3.397898   4.555712   5.805439   6.121332
    36  H    1.088048   2.163392   2.656045   4.045230   4.826440
    37  H    2.656421   2.169466   1.088298   2.137563   3.377519
    38  H    4.571946   3.418847   2.153815   1.086504   2.149791
    39  H    5.283775   3.887477   3.388171   2.148316   1.086847
    40  H    4.609309   3.413902   3.854116   3.371448   2.122724
    41  H    4.027932   4.842486   6.218642   7.215345   7.088650
    42  H    6.309049   6.884845   8.290241   9.093101   8.679133
                   21         22         23         24         25
    21  C    0.000000
    22  C    1.418370   0.000000
    23  C    4.977239   3.759181   0.000000
    24  C    5.260389   4.307401   1.402563   0.000000
    25  C    6.642421   5.716303   2.457379   1.408902   0.000000
    26  C    7.314684   6.597531   3.769061   2.484643   1.418623
    27  H   12.687146  11.947417   8.704119   7.689851   6.312272
    28  H   11.730356  10.774732   7.194509   6.485379   5.088789
    29  H    9.381077   8.373681   4.763359   4.120735   2.765984
    30  H   11.570700  11.073668   8.377841   7.119350   5.934456
    31  H    9.809801   9.545221   7.529539   6.141844   5.322235
    32  H    7.558869   7.476512   6.220018   4.843218   4.572991
    33  H    5.156547   5.099746   4.559606   3.394204   3.852978
    34  H    2.743566   2.780141   3.850098   3.390083   4.558903
    35  H    5.320574   3.905488   2.658288   4.058787   4.991721
    36  H    4.575015   3.428961   4.558416   5.824626   7.015793
    37  H    3.857386   3.440996   6.235579   7.249891   8.598100
    38  H    3.398378   3.934202   7.553881   8.237985   9.646370
    39  H    2.157270   3.444733   7.127659   7.394561   8.760288
    40  H    1.086056   2.184411   5.177323   5.166160   6.474413
    41  H    5.922488   4.622173   1.089010   2.151911   2.684197
    42  H    7.352042   6.289401   2.658303   2.138355   1.086580
                   26         27         28         29         30
    26  C    0.000000
    27  H    5.375558   0.000000
    28  H    4.684020   2.480064   0.000000
    29  H    2.800034   4.264433   2.431291   0.000000
    30  H    4.635208   2.458021   4.275495   4.941974   0.000000
    31  H    3.906945   4.727800   5.896145   5.552496   2.426665
    32  H    3.427001   6.706126   7.192588   5.998681   4.706618
    33  H    3.430667   8.247216   8.049779   6.208074   6.670775
    34  H    4.876285  10.168402   9.500662   7.303294   8.885954
    35  H    6.373229  10.954537   9.109526   6.757318  10.911904
    36  H    8.295552  13.203787  11.474769   9.084786  12.924831
    37  H    9.705298  14.907977  13.407183  10.978980  14.301661
    38  H   10.513490  15.875823  14.684475  12.268979  14.907977
    39  H    9.339756  14.684379  13.839249  11.512724  13.407084
    40  H    6.947040  12.268979  11.512812   9.240384  10.978980
    41  H    4.100455   8.554429   6.792546   4.396153   8.540695
    42  H    2.172318   6.141042   4.537509   2.107644   6.196490
                   31         32         33         34         35
    31  H    0.000000
    32  H    2.432216   0.000000
    33  H    4.688681   2.407860   0.000000
    34  H    7.067381   4.829938   2.422279   0.000000
    35  H   10.183746   8.826461   6.951938   5.541917   0.000000
    36  H   11.888751  10.183749   7.991339   5.984249   2.432220
    37  H   12.924831  10.911907   8.540699   6.196490   4.706623
    38  H   13.203787  10.954541   8.554434   6.141042   6.706131
    39  H   11.474669   9.109431   6.792451   4.537411   7.192544
    40  H    9.084786   6.757322   4.396158   2.107644   5.998683
    41  H    7.991336   6.951938   5.508908   4.939082   2.407860
    42  H    5.984249   5.541917   4.939080   5.493253   4.829933
                   36         37         38         39         40
    36  H    0.000000
    37  H    2.426665   0.000000
    38  H    4.727800   2.458021   0.000000
    39  H    5.896128   4.275513   2.480129   0.000000
    40  H    5.552496   4.941974   4.264433   2.431192   0.000000
    41  H    4.688686   6.670780   8.247221   8.049712   6.208077
    42  H    7.067381   8.885954  10.168402   9.500577   7.303294
                   41         42
    41  H    0.000000
    42  H    2.422275   0.000000
 Stoichiometry    C26H16
 Framework group  C2H[SGH(C26H16)]
 Deg. of freedom    41
 Full point group                 C2H     NOp   4
 Largest Abelian subgroup         C2H     NOp   4
 Largest concise Abelian subgroup C2      NOp   2
                         Standard orientation:                         
 ---------------------------------------------------------------------
 Center     Atomic      Atomic             Coordinates (Angstroms)
 Number     Number       Type             X           Y           Z
 ---------------------------------------------------------------------
      1          6           0       -2.890306    6.213191    0.000000
      2          6           0       -1.518435    6.015476    0.000000
      3          6           0       -1.001044    4.716331    0.000000
      4          6           0       -1.834287    3.568519    0.000000
      5          6           0       -3.233793    3.801585    0.000000
      6          6           0       -3.741839    5.111967    0.000000
      7          6           0       -4.120007    2.722142    0.000000
      8          6           0       -3.648594    1.412655    0.000000
      9          6           0       -2.277180    1.143717    0.000000
     10          6           0       -1.834287   -0.190661    0.000000
     11          6           0       -0.470265   -0.517211    0.000000
     12          6           0       -0.025460   -1.854056   -0.000000
     13          6           0        1.347503   -2.211073   -0.000000
     14          6           0        2.277180   -1.143717    0.000000
     15          6           0        3.648594   -1.412655    0.000000
     16          6           0        4.120007   -2.722142    0.000000
     17          6           0        3.233793   -3.801585    0.000000
     18          6           0        3.741839   -5.111967    0.000000
     19          6           0        2.890306   -6.213191   -0.000000
     20          6           0        1.518435   -6.015476   -0.000000
     21          6           0        1.001044   -4.716331   -0.000000
     22          6           0        1.834287   -3.568519    0.000000
     23          6           0        1.834287    0.190661    0.000000
     24          6           0        0.470265    0.517211    0.000000
     25          6           0        0.025460    1.854056    0.000000
     26          6           0       -1.347503    2.211073   -0.000000
     27          1           0       -3.299214    7.219806    0.000000
     28          1           0       -0.844233    6.867975    0.000000
     29          1           0        0.080685    4.619486    0.000000
     30          1           0       -4.816175    5.285718    0.000000
     31          1           0       -5.195210    2.888837    0.000000
     32          1           0       -4.372243    0.600083    0.000000
     33          1           0       -2.568471   -0.994973    0.000000
     34          1           0       -0.783545   -2.632494   -0.000000
     35          1           0        4.372243   -0.600083    0.000000
     36          1           0        5.195210   -2.888837    0.000000
     37          1           0        4.816175   -5.285718    0.000000
     38          1           0        3.299214   -7.219806   -0.000000
     39          1           0        0.844233   -6.867975   -0.000000
     40          1           0       -0.080685   -4.619486   -0.000000
     41          1           0        2.568471    0.994973    0.000000
     42          1           0        0.783545    2.632494    0.000000
 ---------------------------------------------------------------------
 Rotational constants (GHZ):           0.7608342           0.0864238           0.0776082
 Standard basis: def2SVPP (5D, 7F)
 There are   159 symmetry adapted cartesian basis functions of AG  symmetry.
 There are    52 symmetry adapted cartesian basis functions of BG  symmetry.
 There are    52 symmetry adapted cartesian basis functions of AU  symmetry.
 There are   159 symmetry adapted cartesian basis functions of BU  symmetry.
 There are   146 symmetry adapted basis functions of AG  symmetry.
 There are    52 symmetry adapted basis functions of BG  symmetry.
 There are    52 symmetry adapted basis functions of AU  symmetry.
 There are   146 symmetry adapted basis functions of BU  symmetry.
   396 basis functions,   714 primitive gaussians,   422 cartesian basis functions
    86 alpha electrons       86 beta electrons
       nuclear repulsion energy      1942.5897897510 Hartrees.
 NAtoms=   42 NActive=   42 NUniq=   21 SFac= 4.00D+00 NAtFMM=   60 NAOKFM=F Big=F
 Integral buffers will be    131072 words long.
 Raffenetti 2 integral format.
 Two-electron integral symmetry is turned on.
 Nuclear repulsion after empirical dispersion term =     1942.4803322356 Hartrees.
 One-electron integrals computed using PRISM.
   4 Symmetry operations used in ECPInt.
 ECPInt:  NShTT=   17766 NPrTT=   71262 LenC2=   14931 LenP2D=   39557.
 LDataN:  DoStor=T MaxTD1= 4 Len=   56
 NBasis=   396 RedAO= T EigKep=  2.04D-04  NBF=   146    52    52   146
 NBsUse=   396 1.00D-06 EigRej= -1.00D+00 NBFU=   146    52    52   146
 ExpMin= 1.22D-01 ExpMax= 1.24D+03 ExpMxC= 1.86D+02 IAcc=3 IRadAn=         5 AccDes= 0.00D+00
 Harris functional with IExCor=  402 and IRadAn=       5 diagonalized for initial guess.
 HarFok:  IExCor=  402 AccDes= 0.00D+00 IRadAn=         5 IDoV= 1 UseB2=F ITyADJ=14
 ICtDFT=  3500011 ScaDFX=  1.000000  1.000000  1.000000  1.000000
 FoFCou: FMM=F IPFlag=           0 FMFlag=      100000 FMFlg1=           0
         NFxFlg=           0 DoJE=T BraDBF=F KetDBF=T FulRan=T
         wScrn=  0.000000 ICntrl=       500 IOpCl=  0 I1Cent=   200000004 NGrid=           0
         NMat0=    1 NMatS0=      1 NMatT0=    0 NMatD0=    1 NMtDS0=    0 NMtDT0=    0
 Petite list used in FoFCou.
 Initial guess orbital symmetries:
       Occupied  (BU) (AG) (BU) (AG) (BU) (AG) (BU) (AG) (AG) (BU)
                 (AG) (BU) (AG) (BU) (BU) (AG) (BU) (AG) (BU) (AG)
                 (AG) (BU) (BU) (AG) (BU) (AG) (AG) (BU) (AG) (BU)
                 (AG) (BU) (BU) (AG) (AG) (BU) (BU) (AG) (AG) (BU)
                 (BU) (AG) (AG) (BU) (AG) (BU) (AG) (BU) (AG) (BU)
                 (AG) (BU) (AG) (BU) (AG) (BU) (AG) (BU) (AG) (BU)
                 (BU) (AG) (BU) (AG) (BU) (AG) (AU) (BU) (BG) (AG)
                 (AG) (AU) (BU) (AG) (BU) (BG) (AG) (AU) (BG) (BG)
                 (AU) (AU) (BG) (BG) (AU) (AU)
       Virtual   (BG) (BG) (AU) (AU) (BG) (AU) (BG) (AU) (BG) (AU)
                 (BU) (AG) (BU) (AG) (BG) (AG) (BU) (BU) (AG) (BU)
                 (AU) (AG) (AG) (BU) (BG) (BU) (AG) (BU) (AG) (BU)
                 (AG) (BU) (BU) (AG) (BU) (AG) (BU) (AG) (AG) (BU)
                 (AG) (BU) (AG) (BU) (AG) (BU) (BU) (AG) (AG) (BU)
                 (AG) (BU) (AG) (BU) (BU) (AG) (BU) (AG) (BU) (AG)
                 (AG) (BU) (AG) (BU) (AG) (BU) (AG) (AU) (BU) (BG)
                 (AG) (BU) (AU) (BU) (BG) (BU) (AG) (AG) (AU) (BG)
                 (BU) (AG) (BG) (AG) (AG) (BU) (AU) (AU) (BU) (AG)
                 (BG) (AU) (BU) (BG) (AU) (BG) (BG) (AU) (AG) (BU)
                 (BU) (BU) (AG) (AG) (BG) (AG) (AU) (BU) (BU) (AG)
                 (BU) (AG) (BU) (AU) (AG) (AG) (BU) (AG) (AU) (BG)
                 (AG) (BU) (BU) (BG) (AG) (AG) (BU) (BU) (AG) (AU)
                 (BU) (BU) (AG) (BU) (BG) (AG) (BG) (AG) (BU) (AG)
                 (AU) (BU) (BU) (AG) (AG) (BU) (AG) (BU) (BU) (AG)
                 (BU) (AG) (AG) (BU) (BU) (AG) (BU) (AG) (AU) (BG)
                 (AG) (AU) (BU) (BG) (AU) (BG) (BU) (AG) (BU) (AG)
                 (AG) (BU) (BU) (AU) (BG) (AG) (BU) (AU) (BG) (BU)
                 (AG) (BG) (AU) (AG) (AU) (BU) (BG) (AU) (BG) (AG)
                 (AU) (BG) (AU) (BG) (AU) (AG) (BU) (AG) (BU) (BU)
                 (AG) (AG) (BU) (AG) (AG) (BU) (BU) (AG) (BG) (BU)
                 (AG) (AU) (AG) (BU) (BU) (AG) (BU) (BG) (AU) (AG)
                 (BU) (AG) (BG) (BU) (BU) (AG) (AU) (AG) (BU) (AG)
                 (BU) (BG) (AU) (BU) (AG) (AG) (BU) (BG) (AG) (BU)
                 (BU) (AG) (AG) (AU) (BU) (AG) (BG) (BU) (AU) (BG)
                 (AG) (AU) (BU) (BG) (BU) (AG) (AU) (AU) (BG) (BG)
                 (AG) (BG) (AU) (BU) (BG) (BG) (AU) (AU) (AG) (BU)
                 (BU) (AG) (AG) (BU) (AG) (AU) (AG) (BU) (BG) (BU)
                 (BU) (AG) (AU) (AG) (BG) (BU) (BU) (AG) (AU) (AG)
                 (BG) (BU) (AG) (BU) (AG) (BU) (AG) (BU) (BU) (AG)
                 (AG) (BU) (AG) (BU) (BU) (AG) (BU) (AG) (BU) (AG)
 The electronic state of the initial guess is 1-AG.
 Requested convergence on RMS density matrix=1.00D-08 within 128 cycles.
 Requested convergence on MAX density matrix=1.00D-06.
 Requested convergence on             energy=1.00D-06.
 No special actions if energy rises.
 Integral accuracy reduced to 1.0D-05 until final iterations.
 Initial convergence to 1.0D-05 achieved.  Increase integral accuracy.
 SCF Done:  E(RB3LYP) =  -999.809589413     A.U. after   14 cycles
            NFock= 14  Conv=0.97D-08     -V/T= 2.0104

 **********************************************************************

            Population analysis using the SCF Density.

 **********************************************************************

 Orbital symmetries:
       Occupied  (BU) (AG) (BU) (AG) (BU) (AG) (BU) (AG) (AG) (BU)
                 (AG) (BU) (BU) (AG) (AG) (BU) (BU) (AG) (AG) (BU)
                 (BU) (AG) (BU) (AG) (BU) (AG) (AG) (BU) (AG) (BU)
                 (AG) (BU) (BU) (AG) (AG) (BU) (BU) (AG) (AG) (BU)
                 (BU) (AG) (AG) (BU) (AG) (BU) (AG) (BU) (AG) (BU)
                 (AG) (BU) (AG) (BU) (BU) (AG) (AG) (BU) (BU) (AG)
                 (AG) (BU) (AU) (AG) (BU) (BG) (AG) (BU) (BU) (AU)
                 (AG) (AG) (BG) (BU) (BU) (AG) (AG) (AU) (BG) (BG)
                 (AU) (AU) (BG) (BG) (AU) (AU)
       Virtual   (BG) (BG) (AU) (AU) (BG) (BG) (AU) (AU) (BU) (AG)
                 (BU) (AG) (BG) (AG) (BU) (BU) (AG) (AU) (AG) (BU)
                 (BU) (AG) (AG) (BG) (BU) (BU) (AU) (AG) (BG) (BU)
                 (AG) (AG) (BU) (BU) (AG) (BU) (AG) (AG) (BU) (BU)
                 (AG) (AG) (BU) (AG) (BU) (BU) (BU) (AG) (BU) (AG)
                 (AG) (AG) (BU) (BU) (AG) (AG) (BU) (BU) (AG) (BU)
                 (AG) (BU) (AG) (BU) (AU) (AG) (BG) (BU) (AG) (BU)
                 (AU) (BU) (AG) (BG) (BU) (BU) (AU) (BG) (AG) (BU)
                 (AG) (BG) (AG) (AG) (AU) (AU) (AG) (BU) (BG) (BU)
                 (AG) (AU) (BG) (AU) (BG) (BU) (BG) (AU) (BG) (AG)
                 (AU) (BU) (AG) (AG) (BU) (BU) (BU) (AU) (AG) (BU)
                 (AG) (AU) (BG) (BU) (AG) (BU) (BG) (AG) (AG) (BU)
                 (AG) (BU) (AG) (AU) (AG) (BU) (BU) (AG) (BU) (BG)
                 (AG) (BU) (BU) (BG) (AG) (BU) (AG) (AU) (AG) (BU)
                 (AG) (BU) (BU) (AG) (BU) (AG) (AG) (BU) (AG) (BU)
                 (BU) (AG) (AG) (BU) (BU) (AG) (BU) (AG) (AG) (BU)
                 (AU) (BG) (BU) (AU) (AG) (BG) (AG) (AU) (BU) (BG)
                 (AG) (BU) (BU) (AG) (BU) (AU) (BU) (AG) (BG) (AG)
                 (BG) (AU) (BU) (BG) (AU) (AG) (AU) (BG) (AU) (AG)
                 (BG) (AU) (BG) (AU) (BU) (BG) (AU) (BU) (AG) (BU)
                 (AG) (AG) (AG) (BU) (AG) (BU) (BU) (BG) (AG) (AU)
                 (BU) (AG) (AG) (BU) (BG) (BU) (AG) (BU) (AU) (AG)
                 (BG) (BU) (AG) (BU) (AG) (BU) (AU) (AG) (BU) (AG)
                 (BG) (BU) (AU) (BU) (AG) (AG) (BG) (BU) (AG) (BU)
                 (BU) (AG) (AU) (AG) (BU) (BG) (AG) (AU) (BU) (BG)
                 (AG) (AU) (BG) (BU) (BU) (AG) (AU) (AU) (BG) (BG)
                 (BG) (AG) (AU) (BG) (BU) (BG) (AU) (AU) (AG) (BU)
                 (BU) (AG) (AG) (BU) (AG) (AU) (BU) (AG) (BG) (BU)
                 (AU) (BU) (AG) (BG) (BU) (AG) (BU) (AU) (AG) (BG)
                 (AG) (BU) (AG) (BU) (AG) (BU) (BU) (AG) (BU) (AG)
                 (AG) (BU) (AG) (BU) (BU) (AG) (BU) (AG) (BU) (AG)
 The electronic state is 1-AG.
 Alpha  occ. eigenvalues --  -10.20283 -10.20283 -10.20195 -10.20195 -10.19632
 Alpha  occ. eigenvalues --  -10.19631 -10.19565 -10.19565 -10.19545 -10.19511
 Alpha  occ. eigenvalues --  -10.19301 -10.19298 -10.19269 -10.19269 -10.19062
 Alpha  occ. eigenvalues --  -10.19061 -10.18998 -10.18998 -10.18968 -10.18968
 Alpha  occ. eigenvalues --  -10.18934 -10.18934 -10.18892 -10.18892 -10.18888
 Alpha  occ. eigenvalues --  -10.18887  -0.89181  -0.88027  -0.86024  -0.83509
 Alpha  occ. eigenvalues --   -0.81357  -0.79162  -0.77753  -0.77192  -0.75390
 Alpha  occ. eigenvalues --   -0.74167  -0.72540  -0.71388  -0.68954  -0.66131
 Alpha  occ. eigenvalues --   -0.63606  -0.62596  -0.61517  -0.60980  -0.59643
 Alpha  occ. eigenvalues --   -0.58516  -0.57037  -0.53096  -0.52889  -0.52592
 Alpha  occ. eigenvalues --   -0.50356  -0.49724  -0.49721  -0.47858  -0.46332
 Alpha  occ. eigenvalues --   -0.45789  -0.44519  -0.44225  -0.43600  -0.43479
 Alpha  occ. eigenvalues --   -0.42337  -0.42170  -0.42000  -0.41913  -0.41150
 Alpha  occ. eigenvalues --   -0.40600  -0.39973  -0.39659  -0.38175  -0.38131
 Alpha  occ. eigenvalues --   -0.37317  -0.36168  -0.35189  -0.35017  -0.33976
 Alpha  occ. eigenvalues --   -0.33628  -0.33046  -0.32664  -0.31322  -0.29279
 Alpha  occ. eigenvalues --   -0.29074  -0.26689  -0.25212  -0.22938  -0.22165
 Alpha  occ. eigenvalues --   -0.18722
 Alpha virt. eigenvalues --   -0.08628  -0.05172  -0.03727  -0.02250  -0.00314
 Alpha virt. eigenvalues --    0.02267   0.02345   0.04784   0.06252   0.06355
 Alpha virt. eigenvalues --    0.06498   0.07464   0.08063   0.08222   0.09608
 Alpha virt. eigenvalues --    0.09782   0.11138   0.11243   0.11894   0.12552
 Alpha virt. eigenvalues --    0.13482   0.14841   0.15480   0.15774   0.16894
 Alpha virt. eigenvalues --    0.18989   0.20740   0.22374   0.22540   0.22793
 Alpha virt. eigenvalues --    0.22898   0.24800   0.25386   0.25638   0.26329
 Alpha virt. eigenvalues --    0.26410   0.27411   0.27898   0.27997   0.28808
 Alpha virt. eigenvalues --    0.29868   0.30593   0.31181   0.31432   0.31831
 Alpha virt. eigenvalues --    0.32469   0.32803   0.33181   0.34795   0.35144
 Alpha virt. eigenvalues --    0.36091   0.36414   0.36438   0.37430   0.37442
 Alpha virt. eigenvalues --    0.38440   0.38924   0.39766   0.41252   0.41626
 Alpha virt. eigenvalues --    0.41651   0.42733   0.43596   0.43958   0.44373
 Alpha virt. eigenvalues --    0.45243   0.45335   0.45650   0.46213   0.46360
 Alpha virt. eigenvalues --    0.46940   0.47285   0.47451   0.47695   0.48022
 Alpha virt. eigenvalues --    0.48684   0.49313   0.49373   0.49802   0.50219
 Alpha virt. eigenvalues --    0.50254   0.51041   0.51297   0.52495   0.52644
 Alpha virt. eigenvalues --    0.53358   0.54055   0.54297   0.55921   0.55951
 Alpha virt. eigenvalues --    0.56111   0.56288   0.56946   0.58580   0.59736
 Alpha virt. eigenvalues --    0.59897   0.61280   0.61572   0.64782   0.64788
 Alpha virt. eigenvalues --    0.65007   0.65869   0.66598   0.66866   0.66928
 Alpha virt. eigenvalues --    0.66972   0.67675   0.67760   0.68863   0.68902
 Alpha virt. eigenvalues --    0.68992   0.70205   0.70778   0.70823   0.70831
 Alpha virt. eigenvalues --    0.70951   0.71922   0.72018   0.73314   0.73426
 Alpha virt. eigenvalues --    0.73539   0.74227   0.75050   0.75203   0.75700
 Alpha virt. eigenvalues --    0.77031   0.77995   0.78263   0.78330   0.79072
 Alpha virt. eigenvalues --    0.79540   0.79788   0.80034   0.81064   0.81736
 Alpha virt. eigenvalues --    0.82050   0.82493   0.83813   0.84031   0.84661
 Alpha virt. eigenvalues --    0.85115   0.86262   0.87832   0.87969   0.90017
 Alpha virt. eigenvalues --    0.92978   0.95239   0.97713   0.98614   0.99262
 Alpha virt. eigenvalues --    1.02003   1.07497   1.10058   1.10597   1.11627
 Alpha virt. eigenvalues --    1.12248   1.16727   1.17131   1.18581   1.20712
 Alpha virt. eigenvalues --    1.21151   1.21272   1.22934   1.22995   1.23451
 Alpha virt. eigenvalues --    1.24111   1.24436   1.25085   1.25655   1.25848
 Alpha virt. eigenvalues --    1.27665   1.28102   1.30037   1.32439   1.33072
 Alpha virt. eigenvalues --    1.34270   1.35169   1.35319   1.35422   1.38032
 Alpha virt. eigenvalues --    1.38887   1.38954   1.40288   1.40641   1.41313
 Alpha virt. eigenvalues --    1.42582   1.43213   1.45165   1.45695   1.46751
 Alpha virt. eigenvalues --    1.46779   1.48463   1.48486   1.49087   1.49564
 Alpha virt. eigenvalues --    1.49694   1.50047   1.50990   1.51739   1.52304
 Alpha virt. eigenvalues --    1.57348   1.67622   1.69509   1.70065   1.71487
 Alpha virt. eigenvalues --    1.72132   1.75087   1.75248   1.75294   1.76082
 Alpha virt. eigenvalues --    1.77079   1.77608   1.80997   1.82725   1.83062
 Alpha virt. eigenvalues --    1.83138   1.83691   1.84213   1.84995   1.86911
 Alpha virt. eigenvalues --    1.87076   1.87106   1.88650   1.89768   1.90509
 Alpha virt. eigenvalues --    1.90946   1.91983   1.94924   1.95743   1.96409
 Alpha virt. eigenvalues --    1.98587   1.99422   2.02381   2.05098   2.05837
 Alpha virt. eigenvalues --    2.06526   2.06649   2.07161   2.08249   2.09199
 Alpha virt. eigenvalues --    2.13378   2.13417   2.14466   2.14475   2.16662
 Alpha virt. eigenvalues --    2.17665   2.18153   2.19409   2.19429   2.19984
 Alpha virt. eigenvalues --    2.21546   2.22472   2.24025   2.24096   2.26286
 Alpha virt. eigenvalues --    2.27201   2.27592   2.28663   2.28803   2.31280
 Alpha virt. eigenvalues --    2.32694   2.32875   2.33815   2.34168   2.34447
 Alpha virt. eigenvalues --    2.36340   2.36602   2.40321   2.42748   2.46663
 Alpha virt. eigenvalues --    2.48379   2.48696   2.55765   2.56528   2.56785
 Alpha virt. eigenvalues --    2.57529   2.59503   2.60743   2.60886   2.62237
 Alpha virt. eigenvalues --    2.63091   2.63911   2.64133   2.64547   2.65561
 Alpha virt. eigenvalues --    2.65653   2.66985   2.69298   2.69487   2.70249
 Alpha virt. eigenvalues --    2.70308   2.73389   2.77903   2.77968   2.80275
 Alpha virt. eigenvalues --    2.82300   2.88716   2.89177   2.91118   2.92389
 Alpha virt. eigenvalues --    2.96112   3.01374   3.02355   3.07631   3.25800
 Alpha virt. eigenvalues --    3.33397   3.37369   3.43072   3.51837   3.53815
          Condensed to atoms (all electrons):
               1          2          3          4          5          6
     1  C    5.234418   0.170706   0.143174  -0.155639   0.149873   0.192093
     2  C    0.170706   5.208451   0.240794   0.122682  -0.170312   0.149961
     3  C    0.143174   0.240794   5.439659   0.262274   0.020843  -0.173198
     4  C   -0.155639   0.122682   0.262274   5.550629   0.081601   0.045289
     5  C    0.149873  -0.170312   0.020843   0.081601   5.486759   0.230532
     6  C    0.192093   0.149961  -0.173198   0.045289   0.230532   5.460510
     7  C    0.022198  -0.002315   0.027510   0.025357   0.147304  -0.161628
     8  C   -0.001458   0.000215  -0.003803  -0.137586   0.156344   0.019319
     9  C   -0.000008   0.000298   0.021952   0.002900  -0.171659  -0.001059
    10  C   -0.000001   0.000001  -0.000362   0.025233  -0.000985   0.000053
    11  C   -0.000000   0.000004   0.000044  -0.003225  -0.000061  -0.000001
    12  C    0.000000  -0.000000   0.000001   0.000126  -0.000005  -0.000000
    13  C   -0.000000  -0.000000  -0.000000  -0.000003   0.000000   0.000000
    14  C   -0.000000   0.000000   0.000001   0.000002  -0.000000  -0.000000
    15  C    0.000000  -0.000000  -0.000000   0.000000   0.000000  -0.000000
    16  C   -0.000000   0.000000   0.000000  -0.000000  -0.000000   0.000000
    17  C    0.000000  -0.000000  -0.000000  -0.000000   0.000000  -0.000000
    18  C   -0.000000  -0.000000   0.000000  -0.000000  -0.000000   0.000000
    19  C   -0.000000   0.000000  -0.000000  -0.000000   0.000000  -0.000000
    20  C    0.000000  -0.000000   0.000000   0.000000  -0.000000  -0.000000
    21  C   -0.000000   0.000000   0.000000   0.000000  -0.000000   0.000000
    22  C   -0.000000   0.000000   0.000000  -0.000000  -0.000000  -0.000000
    23  C   -0.000000  -0.000001  -0.000057  -0.000586   0.000010   0.000000
    24  C    0.000007  -0.000098   0.000273   0.022956   0.000453  -0.000003
    25  C    0.000013   0.000321  -0.029004  -0.147942   0.022175  -0.000252
    26  C   -0.004227   0.022220  -0.147662   0.203789   0.004669   0.026631
    27  H    0.436393  -0.084153   0.015162  -0.001217   0.015743  -0.079063
    28  H   -0.085735   0.436094  -0.075286   0.015758  -0.001641   0.015539
    29  H    0.015685  -0.081869   0.417664  -0.047651   0.018932  -0.001916
    30  H   -0.083186   0.016204  -0.002248   0.016941  -0.079954   0.440611
    31  H    0.001032  -0.000069  -0.000294   0.015999  -0.088066  -0.020230
    32  H    0.000013  -0.000002   0.000055  -0.001672   0.016846  -0.000569
    33  H    0.000000  -0.000000   0.000011  -0.000177  -0.000077  -0.000001
    34  H   -0.000000   0.000000   0.000000   0.000000  -0.000000   0.000000
    35  H    0.000000  -0.000000  -0.000000   0.000000   0.000000  -0.000000
    36  H   -0.000000   0.000000  -0.000000  -0.000000   0.000000  -0.000000
    37  H    0.000000  -0.000000   0.000000   0.000000   0.000000  -0.000000
    38  H    0.000000   0.000000  -0.000000  -0.000000   0.000000   0.000000
    39  H   -0.000000   0.000000   0.000000   0.000000  -0.000000   0.000000
    40  H    0.000000  -0.000000   0.000000  -0.000000   0.000000  -0.000000
    41  H   -0.000000  -0.000000   0.000005  -0.000045   0.000000  -0.000000
    42  H   -0.000049   0.001029   0.010890  -0.037491  -0.001055   0.000033
               7          8          9         10         11         12
     1  C    0.022198  -0.001458  -0.000008  -0.000001  -0.000000   0.000000
     2  C   -0.002315   0.000215   0.000298   0.000001   0.000004  -0.000000
     3  C    0.027510  -0.003803   0.021952  -0.000362   0.000044   0.000001
     4  C    0.025357  -0.137586   0.002900   0.025233  -0.003225   0.000126
     5  C    0.147304   0.156344  -0.171659  -0.000985  -0.000061  -0.000005
     6  C   -0.161628   0.019319  -0.001059   0.000053  -0.000001  -0.000000
     7  C    5.521302   0.190857   0.156602   0.019897  -0.001479   0.000018
     8  C    0.190857   5.522536   0.145805  -0.160501   0.022179  -0.001119
     9  C    0.156602   0.145805   5.493888   0.233775   0.151789   0.020063
    10  C    0.019897  -0.160501   0.233775   5.761908   0.189008  -0.161045
    11  C   -0.001479   0.022179   0.151789   0.189008   5.429799   0.235121
    12  C    0.000018  -0.001119   0.020063  -0.161045   0.235121   5.721623
    13  C   -0.000000   0.000009  -0.001209   0.019067   0.123117   0.281203
    14  C    0.000000  -0.000004   0.000243  -0.001536  -0.151150   0.013865
    15  C   -0.000000   0.000000  -0.000004   0.000100  -0.001319   0.025883
    16  C    0.000000  -0.000000   0.000000  -0.000005   0.000064  -0.003410
    17  C   -0.000000   0.000000  -0.000000   0.000010   0.000453   0.022175
    18  C    0.000000  -0.000000  -0.000000   0.000000  -0.000003  -0.000252
    19  C   -0.000000   0.000000  -0.000000  -0.000000   0.000007   0.000013
    20  C    0.000000  -0.000000   0.000000  -0.000001  -0.000098   0.000321
    21  C    0.000000  -0.000000   0.000001  -0.000057   0.000273  -0.029004
    22  C   -0.000000   0.000000   0.000002  -0.000586   0.022956  -0.147942
    23  C   -0.000005   0.000100  -0.001536   0.025419   0.035474  -0.148904
    24  C    0.000064  -0.001319  -0.151150   0.035474  -0.065247   0.025371
    25  C   -0.003410   0.025883   0.013865  -0.148904   0.025371   0.025818
    26  C   -0.134287   0.028160   0.037592   0.033669  -0.134021  -0.001385
    27  H   -0.000540   0.000010  -0.000000   0.000000   0.000000  -0.000000
    28  H    0.000031  -0.000001   0.000008  -0.000000   0.000000   0.000000
    29  H   -0.000250  -0.000029  -0.001480   0.000028  -0.000024  -0.000000
    30  H   -0.022441   0.001163  -0.000089  -0.000001   0.000000  -0.000000
    31  H    0.442948  -0.079000   0.016797  -0.000602   0.000013  -0.000000
    32  H   -0.080468   0.444079  -0.087532  -0.021615   0.001263  -0.000067
    33  H    0.001134  -0.020362  -0.085148   0.440284  -0.081853  -0.021442
    34  H    0.000001  -0.000038   0.000582  -0.019963  -0.082654   0.418124
    35  H    0.000000   0.000000  -0.000000   0.000001  -0.000013  -0.000370
    36  H   -0.000000   0.000000   0.000000   0.000000  -0.000002   0.000057
    37  H   -0.000000   0.000000  -0.000000   0.000000  -0.000000   0.000009
    38  H    0.000000  -0.000000   0.000000   0.000000  -0.000000  -0.000000
    39  H    0.000000  -0.000000  -0.000000  -0.000000  -0.000001  -0.000001
    40  H   -0.000000   0.000000   0.000001  -0.000055   0.001740   0.010775
    41  H   -0.000000   0.000001   0.000019  -0.000445   0.019769  -0.002557
    42  H   -0.000033  -0.000292   0.019200  -0.002164   0.019228  -0.000439
              13         14         15         16         17         18
     1  C   -0.000000  -0.000000   0.000000  -0.000000   0.000000  -0.000000
     2  C   -0.000000   0.000000  -0.000000   0.000000  -0.000000  -0.000000
     3  C   -0.000000   0.000001  -0.000000   0.000000  -0.000000   0.000000
     4  C   -0.000003   0.000002   0.000000  -0.000000  -0.000000  -0.000000
     5  C    0.000000  -0.000000   0.000000  -0.000000   0.000000  -0.000000
     6  C    0.000000  -0.000000  -0.000000   0.000000  -0.000000   0.000000
     7  C   -0.000000   0.000000  -0.000000   0.000000  -0.000000   0.000000
     8  C    0.000009  -0.000004   0.000000  -0.000000   0.000000  -0.000000
     9  C   -0.001209   0.000243  -0.000004   0.000000  -0.000000  -0.000000
    10  C    0.019067  -0.001536   0.000100  -0.000005   0.000010   0.000000
    11  C    0.123117  -0.151150  -0.001319   0.000064   0.000453  -0.000003
    12  C    0.281203   0.013865   0.025883  -0.003410   0.022175  -0.000252
    13  C    5.543591   0.037592   0.028160  -0.134287   0.004669   0.026631
    14  C    0.037592   5.493888   0.145805   0.156602  -0.171659  -0.001059
    15  C    0.028160   0.145805   5.522536   0.190857   0.156344   0.019319
    16  C   -0.134287   0.156602   0.190857   5.521302   0.147304  -0.161628
    17  C    0.004669  -0.171659   0.156344   0.147304   5.486759   0.230532
    18  C    0.026631  -0.001059   0.019319  -0.161628   0.230532   5.460510
    19  C   -0.004227  -0.000008  -0.001458   0.022198   0.149873   0.192093
    20  C    0.022220   0.000298   0.000215  -0.002315  -0.170312   0.149961
    21  C   -0.147662   0.021952  -0.003803   0.027510   0.020843  -0.173198
    22  C    0.203789   0.002900  -0.137586   0.025357   0.081601   0.045289
    23  C    0.033669   0.233775  -0.160501   0.019897  -0.000985   0.000053
    24  C   -0.134021   0.151789   0.022179  -0.001479  -0.000061  -0.000001
    25  C   -0.001385   0.020063  -0.001119   0.000018  -0.000005  -0.000000
    26  C    0.000187  -0.001209   0.000009  -0.000000   0.000000   0.000000
    27  H    0.000000   0.000000  -0.000000   0.000000   0.000000   0.000000
    28  H    0.000000  -0.000000  -0.000000   0.000000  -0.000000   0.000000
    29  H   -0.000000   0.000001   0.000000  -0.000000   0.000000  -0.000000
    30  H    0.000000  -0.000000   0.000000  -0.000000   0.000000  -0.000000
    31  H   -0.000000   0.000000   0.000000  -0.000000   0.000000  -0.000000
    32  H    0.000000  -0.000000   0.000000   0.000000   0.000000  -0.000000
    33  H    0.000541   0.000019   0.000001  -0.000000   0.000000  -0.000000
    34  H   -0.055496   0.019200  -0.000292  -0.000033  -0.001055   0.000033
    35  H    0.016089  -0.087532   0.444079  -0.080468   0.016846  -0.000569
    36  H   -0.001633   0.016797  -0.079000   0.442948  -0.088066  -0.020230
    37  H   -0.000159  -0.000089   0.001163  -0.022441  -0.079954   0.440611
    38  H    0.000054  -0.000000   0.000010  -0.000540   0.015743  -0.079063
    39  H   -0.000301   0.000008  -0.000001   0.000031  -0.001641   0.015539
    40  H   -0.040797  -0.001480  -0.000029  -0.000250   0.018932  -0.001916
    41  H    0.017248  -0.085148  -0.020362   0.001134  -0.000077  -0.000001
    42  H    0.000019   0.000582  -0.000038   0.000001  -0.000000   0.000000
              19         20         21         22         23         24
     1  C   -0.000000   0.000000  -0.000000  -0.000000  -0.000000   0.000007
     2  C    0.000000  -0.000000   0.000000   0.000000  -0.000001  -0.000098
     3  C   -0.000000   0.000000   0.000000   0.000000  -0.000057   0.000273
     4  C   -0.000000   0.000000   0.000000  -0.000000  -0.000586   0.022956
     5  C    0.000000  -0.000000  -0.000000  -0.000000   0.000010   0.000453
     6  C   -0.000000  -0.000000   0.000000  -0.000000   0.000000  -0.000003
     7  C   -0.000000   0.000000   0.000000  -0.000000  -0.000005   0.000064
     8  C    0.000000  -0.000000  -0.000000   0.000000   0.000100  -0.001319
     9  C   -0.000000   0.000000   0.000001   0.000002  -0.001536  -0.151150
    10  C   -0.000000  -0.000001  -0.000057  -0.000586   0.025419   0.035474
    11  C    0.000007  -0.000098   0.000273   0.022956   0.035474  -0.065247
    12  C    0.000013   0.000321  -0.029004  -0.147942  -0.148904   0.025371
    13  C   -0.004227   0.022220  -0.147662   0.203789   0.033669  -0.134021
    14  C   -0.000008   0.000298   0.021952   0.002900   0.233775   0.151789
    15  C   -0.001458   0.000215  -0.003803  -0.137586  -0.160501   0.022179
    16  C    0.022198  -0.002315   0.027510   0.025357   0.019897  -0.001479
    17  C    0.149873  -0.170312   0.020843   0.081601  -0.000985  -0.000061
    18  C    0.192093   0.149961  -0.173198   0.045289   0.000053  -0.000001
    19  C    5.234418   0.170706   0.143174  -0.155639  -0.000001  -0.000000
    20  C    0.170706   5.208451   0.240794   0.122682   0.000001   0.000004
    21  C    0.143174   0.240794   5.439659   0.262274  -0.000362   0.000044
    22  C   -0.155639   0.122682   0.262274   5.550629   0.025233  -0.003225
    23  C   -0.000001   0.000001  -0.000362   0.025233   5.761908   0.189008
    24  C   -0.000000   0.000004   0.000044  -0.003225   0.189008   5.429799
    25  C    0.000000  -0.000000   0.000001   0.000126  -0.161045   0.235121
    26  C   -0.000000  -0.000000  -0.000000  -0.000003   0.019067   0.123117
    27  H    0.000000   0.000000  -0.000000  -0.000000   0.000000  -0.000000
    28  H   -0.000000   0.000000   0.000000   0.000000  -0.000000  -0.000001
    29  H    0.000000  -0.000000   0.000000  -0.000000  -0.000055   0.001740
    30  H    0.000000  -0.000000   0.000000   0.000000   0.000000  -0.000000
    31  H   -0.000000   0.000000  -0.000000  -0.000000   0.000000  -0.000002
    32  H    0.000000  -0.000000  -0.000000   0.000000   0.000001  -0.000013
    33  H   -0.000000  -0.000000   0.000005  -0.000045  -0.000445   0.019769
    34  H   -0.000049   0.001029   0.010890  -0.037491  -0.002164   0.019228
    35  H    0.000013  -0.000002   0.000055  -0.001672  -0.021615   0.001263
    36  H    0.001032  -0.000069  -0.000294   0.015999  -0.000602   0.000013
    37  H   -0.083186   0.016204  -0.002248   0.016941  -0.000001   0.000000
    38  H    0.436393  -0.084153   0.015162  -0.001217   0.000000   0.000000
    39  H   -0.085735   0.436094  -0.075286   0.015758  -0.000000   0.000000
    40  H    0.015685  -0.081869   0.417664  -0.047651   0.000028  -0.000024
    41  H    0.000000  -0.000000   0.000011  -0.000177   0.440284  -0.081853
    42  H   -0.000000   0.000000   0.000000   0.000000  -0.019963  -0.082654
              25         26         27         28         29         30
     1  C    0.000013  -0.004227   0.436393  -0.085735   0.015685  -0.083186
     2  C    0.000321   0.022220  -0.084153   0.436094  -0.081869   0.016204
     3  C   -0.029004  -0.147662   0.015162  -0.075286   0.417664  -0.002248
     4  C   -0.147942   0.203789  -0.001217   0.015758  -0.047651   0.016941
     5  C    0.022175   0.004669   0.015743  -0.001641   0.018932  -0.079954
     6  C   -0.000252   0.026631  -0.079063   0.015539  -0.001916   0.440611
     7  C   -0.003410  -0.134287  -0.000540   0.000031  -0.000250  -0.022441
     8  C    0.025883   0.028160   0.000010  -0.000001  -0.000029   0.001163
     9  C    0.013865   0.037592  -0.000000   0.000008  -0.001480  -0.000089
    10  C   -0.148904   0.033669   0.000000  -0.000000   0.000028  -0.000001
    11  C    0.025371  -0.134021   0.000000   0.000000  -0.000024   0.000000
    12  C    0.025818  -0.001385  -0.000000   0.000000  -0.000000  -0.000000
    13  C   -0.001385   0.000187   0.000000   0.000000  -0.000000   0.000000
    14  C    0.020063  -0.001209   0.000000  -0.000000   0.000001  -0.000000
    15  C   -0.001119   0.000009  -0.000000  -0.000000   0.000000   0.000000
    16  C    0.000018  -0.000000   0.000000   0.000000  -0.000000  -0.000000
    17  C   -0.000005   0.000000   0.000000  -0.000000   0.000000   0.000000
    18  C   -0.000000   0.000000   0.000000   0.000000  -0.000000  -0.000000
    19  C    0.000000  -0.000000   0.000000  -0.000000   0.000000   0.000000
    20  C   -0.000000  -0.000000   0.000000   0.000000  -0.000000  -0.000000
    21  C    0.000001  -0.000000  -0.000000   0.000000   0.000000   0.000000
    22  C    0.000126  -0.000003  -0.000000   0.000000  -0.000000   0.000000
    23  C   -0.161045   0.019067   0.000000  -0.000000  -0.000055   0.000000
    24  C    0.235121   0.123117  -0.000000  -0.000001   0.001740  -0.000000
    25  C    5.721623   0.281203  -0.000000  -0.000001   0.010775   0.000009
    26  C    0.281203   5.543591   0.000054  -0.000301  -0.040797  -0.000159
    27  H   -0.000000   0.000054   0.671736  -0.012362  -0.000349  -0.012554
    28  H   -0.000001  -0.000301  -0.012362   0.671357  -0.013324  -0.000339
    29  H    0.010775  -0.040797  -0.000349  -0.013324   0.676924   0.000028
    30  H    0.000009  -0.000159  -0.012554  -0.000339   0.000028   0.678338
    31  H    0.000057  -0.001633  -0.000019  -0.000001   0.000010   0.006614
    32  H   -0.000370   0.016089  -0.000000   0.000000   0.000000  -0.000019
    33  H   -0.002557   0.017248  -0.000000   0.000000   0.000001  -0.000000
    34  H   -0.000439   0.000019   0.000000   0.000000  -0.000000   0.000000
    35  H   -0.000067   0.000000   0.000000  -0.000000   0.000000   0.000000
    36  H   -0.000000  -0.000000  -0.000000  -0.000000   0.000000   0.000000
    37  H   -0.000000   0.000000   0.000000   0.000000   0.000000   0.000000
    38  H   -0.000000   0.000000   0.000000   0.000000  -0.000000   0.000000
    39  H    0.000000   0.000000   0.000000  -0.000000  -0.000000   0.000000
    40  H   -0.000000  -0.000000  -0.000000  -0.000000   0.000000   0.000000
    41  H   -0.021442   0.000541   0.000000   0.000000  -0.000022   0.000000
    42  H    0.418124  -0.055496  -0.000000   0.000031   0.001210   0.000001
              31         32         33         34         35         36
     1  C    0.001032   0.000013   0.000000  -0.000000   0.000000  -0.000000
     2  C   -0.000069  -0.000002  -0.000000   0.000000  -0.000000   0.000000
     3  C   -0.000294   0.000055   0.000011   0.000000  -0.000000  -0.000000
     4  C    0.015999  -0.001672  -0.000177   0.000000   0.000000  -0.000000
     5  C   -0.088066   0.016846  -0.000077  -0.000000   0.000000   0.000000
     6  C   -0.020230  -0.000569  -0.000001   0.000000  -0.000000  -0.000000
     7  C    0.442948  -0.080468   0.001134   0.000001   0.000000  -0.000000
     8  C   -0.079000   0.444079  -0.020362  -0.000038   0.000000   0.000000
     9  C    0.016797  -0.087532  -0.085148   0.000582  -0.000000   0.000000
    10  C   -0.000602  -0.021615   0.440284  -0.019963   0.000001   0.000000
    11  C    0.000013   0.001263  -0.081853  -0.082654  -0.000013  -0.000002
    12  C   -0.000000  -0.000067  -0.021442   0.418124  -0.000370   0.000057
[...]
 543,-0.00000162,0.00005817,-0.00004535,-0.00000967,-0.00091172,0.00000
 251,0.00000315,0.00008037,-0.00001532,0.00001276,-0.00032896,0.0000459
 6,-0.00001685,0.00022872,0.00030132,0.00022210,0.00784606,0.00080343,0
 .00001403,0.00382049,0.01420537,0.00283762,-0.03839534,0.00061265,0.00
 027894,0.00342525,0.00028822,-0.00007922,0.00612958,-0.00006566,-0.000
 01353,-0.00061365,0.00000132,-0.00000064,0.00002281,-0.00000024,0.0000
 0094,-0.00000718,0.00000083,-0.00000071,0.00001775,-0.00000009,-0.0000
 0011,0.00000051,0.00000024,0.00000006,0.00000049,0.00000011,0.00000019
 ,0.00000049,-0.00000012,-0.00000014,0.00000131,0.00000012,-0.00000016,
 0.00000042,0.00000030,-0.00000004,0.00000071,-0.00000006,-0.00000022,0
 .00000101,-0.00000023,-0.00000021,-0.00000034,0.00000307,0.00000253,0.
 00009398,0.00000286,0.00000034,-0.00002452,0.00000116,0.00000198,0.000
 06051,-0.00026154,-0.00005499,-0.00454116,-0.01570902,-0.00315538,0.02
 654453,-0.00000525,-0.00000640,0.00000028,-0.00000526,0.00000430,0.000
 00017,-0.00000343,0.00000298,0.00000008,0.00000309,0.00000365,-0.00000
 010,-0.00000979,-0.00000774,0.00000053,0.00000649,-0.00000155,-0.00000
 031,0.00000220,0.00001361,-0.00000034,-0.00001271,-0.00001779,0.000000
 63,0.00003074,0.00003279,-0.00000186,-0.00006472,-0.00002490,0.0000031
 6,0.00007752,0.00006703,-0.00000569,-0.00008727,-0.00003458,0.00001102
 ,0.00049969,-0.00138191,0.00000149,-0.00037599,0.00000930,0.00000222,-
 0.00012810,0.00007888,0.00001042,0.00022294,0.00008774,-0.00005491,-0.
 00090740,0.00043547,0.00000406,-0.00238906,0.00294666,0.00036946,0.010
 66278,0.02087130,-0.00056741,-0.08637602,-0.08281044,0.00323356,-0.005
 45401,-0.03043512,0.00076621,-0.00531305,0.00029860,0.00061311,-0.0000
 5361,-0.00014795,0.00000354,0.00005369,-0.00004555,-0.00000037,-0.0000
 3293,0.00002537,0.00000116,0.00000711,-0.00002865,0.00000006,-0.000001
 69,-0.00000050,0.00000011,-0.00000090,-0.00000157,0.00000009,0.0000017
 2,0.00000177,-0.00000007,-0.00000182,0.00000169,0.00000009,-0.00000392
 ,0.00000067,0.00000025,0.00000021,0.00000537,0.00000004,-0.00000016,0.
 00001008,0.00000012,0.00001223,0.00003574,-0.00000020,0.00000659,-0.00
 001444,0.00000440,-0.00000674,-0.00007382,0.00000288,0.00032960,0.0010
 0313,-0.00001609,0.00096916,-0.00081165,-0.00020523,0.08717281,-0.0000
 0851,0.00000022,0.00000039,0.00000068,0.00000246,-0.00000007,-0.000013
 17,-0.00000200,0.00000063,0.00002161,0.00000861,-0.00000109,-0.0000072
 3,0.00000919,0.00000024,0.00000169,-0.00001158,0.00000004,-0.00001105,
 0.00000709,0.00000042,0.00000047,-0.00002799,0.00000025,-0.00000854,-0
 .00000142,0.00000041,-0.00000408,-0.00003648,0.00000056,0.00000579,0.0
 0001398,-0.00000073,-0.00001245,-0.00004467,0.00000261,0.00016502,-0.0
 0016872,-0.00000363,-0.00015988,0.00005064,0.00000338,0.00000338,-0.00
 000620,0.00000114,-0.00005287,0.00003473,-0.00000805,0.00058636,0.0006
 7809,-0.00004315,0.00421308,-0.00163099,-0.00011319,-0.01053100,-0.017
 10832,0.00072568,-0.08319694,-0.30920112,0.00693642,0.00066062,-0.0019
 4012,0.00003054,-0.00067093,0.00166083,0.00009892,0.00002744,-0.000023
 83,-0.00000118,-0.00003088,0.00000373,0.00000181,0.00001388,0.00001915
 ,-0.00000089,-0.00001430,0.00001360,0.00000054,-0.00000373,-0.00000095
 ,0.00000019,-0.00000157,-0.00000344,0.00000012,0.00000312,0.00000261,-
 0.00000017,-0.00000247,0.00000324,0.00000009,-0.00000574,0.00000124,0.
 00000027,0.00000187,0.00000548,-0.00000012,0.00000235,0.00000652,-0.00
 000013,-0.00000228,-0.00001066,0.00000041,-0.00001732,-0.00001464,0.00
 000205,0.00001914,0.00002734,-0.00000080,-0.00049682,-0.00088443,0.000
 03572,0.00009417,0.00104883,-0.00005550,0.08966691,0.32660975,0.000000
 31,0.00000029,-0.00000078,0.00000021,-0.00000024,-0.00000074,0.0000002
 6,-0.00000013,-0.00000101,-0.00000029,-0.00000025,0.00000195,0.0000005
 2,0.00000026,-0.00000040,-0.00000035,0.00000020,-0.00000052,-0.0000000
 7,-0.00000074,-0.00000175,0.00000042,0.00000111,-0.00000367,-0.0000014
 1,-0.00000154,-0.00000092,0.00000293,0.00000154,-0.00000378,-0.0000050
 1,-0.00000362,-0.00002693,0.00001078,0.00000365,0.00013751,-0.00001562
 ,0.00006942,0.00020758,0.00000410,-0.00000461,-0.00032686,0.00001126,-
 0.00000243,0.00011055,-0.00005335,-0.00001469,-0.00091644,0.00000239,-
 0.00003602,-0.00071911,0.00035545,-0.00005339,0.00610794,-0.00022008,-
 0.00075734,0.00355499,0.00323783,0.00691817,-0.03753035,0.00042227,0.0
 0149908,0.00360566,0.00062384,0.00005313,0.00770925,0.00000160,0.00000
 710,-0.00001341,-0.00000053,0.00000250,0.00003514,0.00000128,-0.000001
 44,-0.00000253,-0.00000010,0.00000122,0.00000159,0.00000014,0.00000004
 ,0.00000049,0.00000009,0.00000012,0.00000069,-0.00000008,-0.00000010,0
 .00000074,0.00000014,-0.00000011,0.00000058,0.00000032,-0.00000003,0.0
 0000157,0.00000007,-0.00000029,0.00000221,0.00000021,-0.00000049,0.000
 00484,0.00000022,-0.00000139,0.00001634,0.00000443,0.00000191,0.000096
 15,0.00000185,0.00000359,0.00003686,0.00000050,-0.00003512,0.00022420,
 -0.00021525,-0.00001272,-0.00355632,-0.00389552,-0.00756298,0.02595432
 ,0.00000568,0.00000688,-0.00000037,0.00000597,-0.00000244,-0.00000043,
 0.00000869,-0.00000164,-0.00000037,-0.00000803,-0.00000398,0.00000032,
 0.00001026,0.00000197,-0.00000048,-0.00000815,0.00000633,0.00000021,-0
 .00000112,-0.00002306,0.00000035,0.00001831,0.00002271,-0.00000179,-0.
 00004472,-0.00002597,0.00000156,0.00005981,-0.00002949,-0.00000272,-0.
 00008458,0.00003960,-0.00000895,-0.00231504,-0.00221243,0.00013578,-0.
 00103251,0.00114134,-0.00012131,0.00013438,-0.00000220,-0.00000835,0.0
 0008657,0.00001445,-0.00001118,0.00048540,-0.00036284,-0.00000530,-0.0
 0020525,-0.00236870,0.00032194,-0.00015732,-0.00092341,-0.00000661,-0.
 00474566,-0.00272090,0.00060608,-0.01607912,0.02598902,0.00070027,-0.1
 7083595,0.13697951,0.00473772,0.01114945,-0.00703433,-0.00026753,0.000
 03695,0.00010477,0.00000043,-0.00005137,0.00003397,0.00000150,0.000034
 02,-0.00002417,0.00000021,-0.00000798,0.00003114,0.00000042,0.00000361
 ,0.00000109,-0.00000012,0.00000172,0.00000312,-0.00000008,-0.00000314,
 -0.00000313,0.00000037,0.00000246,-0.00000319,-0.00000003,0.00000701,-
 0.00000108,-0.00000021,-0.00000196,-0.00000418,0.00000040,-0.00000554,
 0.00001240,0.00000139,-0.00306974,-0.00119299,0.00022162,-0.00000935,0
 .00001441,0.00000121,-0.00004086,-0.00016225,0.00000087,-0.00000338,0.
 00008891,-0.00004933,-0.00078937,0.00111798,0.00003014,0.00122207,-0.0
 0022317,-0.00027559,0.18620609,-0.00000058,0.00000344,-0.00000002,0.00
 000398,0.00000176,-0.00000025,0.00000754,-0.00000009,-0.00000035,0.000
 00076,0.00000121,-0.00000007,-0.00000033,-0.00000307,0.00000006,-0.000
 00343,0.00000523,0.00000008,-0.00000006,-0.00002380,0.00000028,0.00001
 597,0.00001363,-0.00000106,-0.00002069,-0.00002263,0.00000103,-0.00003
 446,-0.00004540,0.00000208,-0.00028211,0.00088680,0.00000059,0.0004882
 5,-0.00098976,-0.00001165,0.00162520,0.00061318,-0.00012041,-0.0000727
 5,-0.00018631,0.00000502,0.00009678,0.00001979,-0.00000641,0.00136162,
 -0.00046343,-0.00005599,-0.00373026,-0.00380384,0.00028523,-0.00087708
 ,0.00003301,0.00003538,-0.00139135,0.00098372,0.00013723,-0.00606508,0
 .00765665,0.00025523,0.13746901,-0.22493827,-0.00442938,0.02064222,-0.
 01750850,-0.00073877,0.00006388,0.00017033,-0.00000412,0.00017850,0.00
 003216,-0.00000891,0.00001420,0.00009622,-0.00000137,-0.00003357,0.000
 02093,0.00000145,0.00000317,0.00000077,-0.00000014,0.00000177,0.000002
 61,-0.00000010,-0.00000313,-0.00000412,0.00000024,0.00000081,-0.000002
 13,0.,0.00000536,-0.00000006,-0.00000023,-0.00000330,0.00000125,0.0000
 0020,-0.00002251,0.00002700,0.00000106,-0.00099801,0.00154540,0.000044
 90,-0.00006894,0.00001073,0.00000336,-0.00013759,-0.00041582,0.0000104
 3,0.00009772,-0.00002691,-0.00001568,-0.00031461,0.00019974,0.00001387
 ,0.00026222,0.00092334,-0.00007420,-0.14830657,0.23516494,-0.00000029,
 -0.00000037,-0.00000052,-0.00000050,0.00000006,-0.00000361,-0.00000047
 ,0.00000008,0.00000052,0.00000027,0.00000015,-0.00000213,-0.00000045,-
 0.00000005,0.00000069,0.00000032,-0.00000038,-0.00000220,0.00000010,0.
 00000136,0.00000092,-0.00000172,-0.00000138,-0.00001428,0.00000150,0.0
 0000128,-0.00001792,-0.00000266,0.00000184,-0.00000454,-0.00000539,-0.
 00001461,-0.00026441,0.00010591,0.00011590,0.00003561,-0.00012666,-0.0
 0009756,-0.00332677,-0.00000757,0.00000169,-0.00004259,-0.00001209,-0.
 00000252,-0.00014614,-0.00002437,0.00002545,0.00028916,0.00033700,0.00
 022093,0.00603866,-0.00000712,0.00003756,-0.00051367,0.00059137,0.0002
 0002,0.00742040,0.00105480,-0.00125857,0.00479950,0.00473231,-0.004406
 26,-0.03861087,-0.00057364,0.00056830,0.00385798,0.00000088,-0.0000060
 5,0.00007066,-0.00000010,-0.00000209,-0.00001162,-0.00000021,0.0000004
 4,0.00003285,0.00000114,-0.00000161,0.00000822,-0.00000014,-0.00000005
 ,0.00000131,-0.00000007,-0.00000017,0.00000074,0.00000037,0.00000024,0
 .00000397,-0.00000008,0.00000019,0.00000104,-0.00000028,0.00000008,0.0
 0000232,0.00000039,0.00000024,0.00000551,0.00000177,-0.00000059,0.0000
 2662,0.00021946,0.00005411,0.00133259,0.00000214,-0.00000058,0.0000196
 3,0.00000060,0.00001159,-0.00006056,-0.00004943,-0.00001526,-0.0010245
 8,0.00004599,-0.00005378,0.00010910,-0.00028096,-0.00005128,-0.0046519
 3,-0.00600137,0.00467280,0.02462793,0.00001415,-0.00001319,-0.00000042
 ,-0.00001521,-0.00003601,0.00000077,-0.00000576,0.00007900,-0.00000162
 ,-0.00005067,-0.00002244,0.00001179,0.00002072,-0.00000829,-0.00000052
 ,0.00001826,-0.00000165,-0.00000151,-0.00000076,0.00004842,-0.00000101
 ,-0.00005353,-0.00002774,0.00000480,0.00023344,0.00013139,-0.00002097,
 0.00048857,0.00097577,-0.00002666,-0.00305909,0.00216852,0.00036639,-0
 .00068308,0.00039814,0.00000686,-0.00490572,0.00064740,0.00052810,-0.0
 0452250,-0.02947303,0.00075815,0.00100390,-0.00226198,-0.00024415,0.00
 012475,0.00042207,-0.00001104,0.00014644,-0.00023163,-0.00001088,0.000
 02963,0.00014116,-0.00000140,-0.00001512,-0.00002913,0.00000096,-0.000
 01261,-0.00009704,0.00000170,-0.00042465,0.00012125,0.00002721,0.00016
 101,-0.00152801,0.00001937,-0.07710865,-0.06973923,0.00267766,0.008914
 51,0.02118079,-0.00045507,0.00120982,0.00152569,-0.00023310,0.00012875
 ,-0.00045134,-0.00000848,0.00000518,-0.00000316,-0.00000023,-0.0000001
 6,0.00000235,0.00000021,-0.00000554,-0.00002251,0.00000177,0.00000524,
 -0.00000314,-0.00000016,0.00000034,-0.00000527,0.,0.00000213,-0.000026
 33,0.00000037,-0.00021348,0.00023039,0.00001769,0.00003353,-0.00006128
 ,-0.00005110,-0.00040898,0.00109079,0.00001664,-0.00000157,0.00000768,
 0.00001518,-0.00002740,0.00000216,0.00000180,-0.00000400,0.00000757,-0
 .00000004,-0.00004771,-0.00001249,-0.00000031,0.00002209,-0.00000053,-
 0.00000036,0.07938292,0.00000478,-0.00002018,0.00000002,-0.00002378,0.
 00005599,0.00000042,0.00008093,-0.00004810,-0.00000353,-0.00008487,-0.
 00007157,0.00000694,-0.00002108,-0.00008263,0.00000200,0.00000538,0.00
 003954,-0.00000085,0.00007732,-0.00005889,-0.00000312,0.00003549,0.000
 14495,-0.00000282,0.00000087,0.00018228,-0.00000404,-0.00100761,-0.000
 80445,0.00005817,0.00407644,-0.00053832,-0.00012897,0.00035661,0.00056
 379,-0.00002799,-0.00114682,0.00154514,0.00010817,-0.00065897,-0.00517
 059,0.00013950,0.00233654,0.00059609,-0.00016888,-0.00036076,0.0001542
 2,0.00001522,0.00011308,0.00017898,-0.00000885,-0.00002389,0.00000041,
 0.00000149,-0.00004080,0.00003581,0.00000151,0.00004205,-0.00002271,-0
 .00000173,-0.00016655,0.00001922,0.00000964,0.00037339,-0.00041960,-0.
 00001063,-0.07042251,-0.31199105,0.00637016,-0.00788519,-0.01795524,0.
 00061787,-0.00225424,0.00093750,0.00005883,0.00040307,0.00013306,-0.00
 002224,0.00000316,0.00000483,-0.00000021,0.00001008,0.00000652,-0.0000
 0049,0.00001240,0.00002700,-0.00000059,-0.00000032,-0.00000103,0.00000
 004,0.00001134,0.00000540,-0.00000060,-0.00002325,0.00001136,0.0000010
 1,0.00023039,-0.00025432,-0.00000569,-0.00004419,-0.00014198,-0.000008
 10,-0.00049851,0.00054074,0.00001976,-0.00007318,-0.00000751,0.0000071
 0,-0.00001780,0.00000742,0.00000088,-0.00000645,0.00000220,0.00000025,
 -0.00001838,-0.00000783,0.00000032,0.00001792,0.00000974,-0.00000080,0
 .07549871,0.33192850,-0.00000061,0.00000087,0.00000227,0.00000063,0.00
 000100,-0.00000745,-0.00000164,-0.00000344,-0.00002149,0.00001248,0.00
 000399,0.00019304,-0.00000038,0.00000139,0.00000774,-0.00000159,-0.000
 00052,-0.00001405,-0.00000133,-0.00000175,-0.00001071,0.00000410,0.000
 00017,0.00004136,-0.00001952,-0.00001021,-0.00017869,-0.00000472,-0.00
 003550,0.00015319,0.00034529,-0.00003887,0.00519102,0.00000732,-0.0000
 2996,-0.00044456,0.00054794,0.00002343,0.00640198,0.00043945,0.0015002
 9,0.00459109,-0.00029502,0.00004830,-0.00468233,-0.00000238,-0.0000217
 5,-0.00000979,-0.00001470,0.00000743,-0.00013767,0.00000043,-0.0000063
 1,0.00003314,0.00000109,0.00000096,-0.00000164,0.00000017,0.00000484,0
 .00000068,0.00003040,-0.00000395,0.00017858,-0.00000166,0.00007916,0.0
 0021251,0.00268521,0.00633789,-0.03694023,-0.00013358,-0.00075481,0.00
 425386,-0.00019129,-0.00011968,-0.00335833,-0.00001793,0.00001811,-0.0
 0015596,-0.00000030,0.00000009,-0.00000034,0.00000012,-0.00000013,0.00
 000484,0.00000139,0.00000106,0.00002662,-0.00000019,0.00000017,0.00000
 109,-0.00000018,0.00000018,-0.00000074,0.00000033,0.00000116,0.0000037
 0,0.00001769,-0.00000569,0.00021426,-0.00005129,-0.00000729,-0.0010603
 1,0.00003421,-0.00005530,0.00019772,0.00001608,0.00000328,0.00032092,0
 .00000202,-0.00000006,0.00001112,0.00000012,-0.00000041,-0.00000301,-0
 .00000025,0.00000004,-0.00005729,-0.00000056,0.00000008,0.00001437,-0.
 00342260,-0.00696480,0.02483133,0.00003172,-0.00003694,-0.00000217,-0.
 00003000,-0.00034322,-0.00001447,-0.00285231,0.00137496,0.00012172,0.0
 0034905,-0.00120335,-0.00020010,0.00008394,-0.00001052,-0.00000701,0.0
 0013185,-0.00011820,0.00000400,0.00011438,0.00005086,-0.00001829,0.000
 69415,0.00086864,-0.00003240,-0.00322279,0.00233415,0.00045602,-0.0006
 8693,0.00040077,0.00000511,-0.00505948,0.00059867,0.00048262,0.0001331
 1,-0.00150874,0.00001630,0.00016166,-0.00011023,-0.00001578,0.00018695
 ,0.00042218,-0.00002229,-0.00000358,-0.00001286,0.00001196,0.00000824,
 -0.00003385,-0.00000035,-0.00005532,-0.00004723,0.00000350,0.00001299,
 0.00002424,-0.00000085,-0.00002403,-0.00001871,0.00000092,-0.00000983,
 0.00004513,0.00000003,0.00000398,-0.00002904,-0.00000009,0.00003172,0.
 00009096,-0.00000002,0.00121379,-0.00191624,-0.00019732,-0.00494358,-0
 .03018439,0.00078813,-0.07391941,-0.06566447,0.00242515,0.01128543,0.0
 2092692,-0.00053278,0.00003887,-0.00004149,0.00000307,0.00001223,-0.00
 000228,0.00000022,-0.00306974,-0.00099801,0.00021946,0.00002414,-0.000
 01357,-0.00000071,-0.00002817,-0.00003293,0.00000366,-0.00021883,0.000
 25171,0.00000890,0.00003353,-0.00004419,-0.00005129,-0.00040871,-0.000
 11311,0.00003077,-0.00002593,0.00003395,0.00000104,0.00000560,0.000003
 26,-0.00000185,-0.00000554,0.00000038,0.00000033,-0.00000013,0.0000026
 4,0.,0.00000089,-0.00000016,0.00000013,-0.00000039,0.00002798,-0.00000
 038,-0.00037917,0.00108917,0.00001527,0.08038564,-0.00013946,-0.000020
 83,0.00000656,-0.00014470,0.00077025,-0.00000630,-0.00135092,-0.000576
 09,0.00007069,-0.00173879,-0.00075353,0.00004433,0.00017350,-0.0000838
 9,-0.00000801,-0.00007959,0.00004835,0.00000531,-0.00003447,-0.0000094
 5,-0.00000115,-0.00083447,-0.00073941,0.00004993,0.00404113,-0.0004478
 9,-0.00010869,0.00025114,0.00057732,-0.00002361,-0.00112798,0.00149066
 ,0.00009540,0.00036008,-0.00045165,-0.00001063,0.00002981,0.00023497,-
 0.00000620,-0.00035052,0.00012922,0.00001307,0.00003475,-0.00009294,0.
 00000212,-0.00005610,-0.00003182,0.00000292,-0.00002004,0.00002711,0.0
 0000073,-0.00000974,-0.00002068,0.00000070,-0.00002506,0.00001082,0.00
 000097,0.00001270,0.00001591,-0.00000076,-0.00001483,-0.00001568,0.000
 00082,0.00005585,0.00004905,-0.00000260,0.00208410,0.00083381,-0.00014
 540,-0.00078512,-0.00551034,0.00014974,-0.06575857,-0.31895300,0.00621
 359,-0.00676954,-0.01787079,0.00057161,-0.00004503,0.00005798,0.000002
 53,0.00003574,-0.00001066,-0.00000139,-0.00119299,0.00154540,0.0000541
 1,0.00001129,0.00001177,-0.00000060,0.00004661,0.00002505,-0.00000202,
 0.00022700,-0.00023248,-0.00000783,-0.00006128,-0.00014198,-0.00000729
 ,-0.00011311,-0.00003409,0.00000811,-0.00000240,0.00001736,-0.00000003
 ,-0.00001338,0.00000293,0.00000024,-0.00000613,0.00000469,0.00000025,-
 0.00000509,-0.00000035,0.00000025,-0.00000232,-0.00000529,0.00000021,0
 .00000460,0.00001051,-0.00000036,-0.00062385,0.00046535,0.00002652,0.0
 7393716,0.33967433,-0.00000104,0.00000172,-0.00002286,-0.00001667,0.00
 000308,-0.00041612,0.00015187,-0.00005804,0.00004057,-0.00019418,0.000
 01904,-0.00416094,-0.00000904,0.00000068,-0.00006644,0.00000357,0.0000
 0714,0.00018862,-0.00001734,-0.00000518,-0.00026006,-0.00001356,-0.000
 03050,0.00021255,0.00043714,-0.00002808,0.00695965,0.00000677,-0.00003
 067,-0.00048481,0.00050172,0.00001386,0.00527617,-0.00000437,0.0000776
 3,0.00012431,-0.00001733,0.00000041,-0.00019752,-0.00001375,-0.0000234
 3,-0.00018528,0.00001144,0.00000436,0.00024611,-0.00000010,0.00000187,
 -0.00000713,0.00000320,0.00000202,0.00000755,-0.00000047,-0.00000091,0
 .00000074,0.00000099,0.00000067,-0.00000892,0.00000039,-0.00000229,0.0
 0000135,-0.00000024,0.00000149,-0.00000462,0.00000037,-0.00000426,0.00
 005256,-0.00024157,0.00004352,-0.00340223,0.00046296,0.00153816,0.0046
 3674,0.00242620,0.00620915,-0.03812962,-0.00022644,-0.00073639,0.00492
 397,0.00000311,0.00000236,0.00009398,-0.00000020,0.00000041,0.00001634
 ,0.00022162,0.00004490,0.00133259,-0.00000098,0.00000058,0.00000601,0.
 00000278,0.00000174,0.00004156,0.00000917,-0.00000900,0.00002815,-0.00
 005110,-0.00000810,-0.00106031,0.00003077,0.00000811,0.00021489,0.0000
 0144,-0.00000175,0.00000394,-0.00000167,-0.00000055,-0.00003274,0.0000
 0040,-0.00000005,0.00000149,0.00000008,-0.00000012,0.00000032,0.000000
 15,0.00000011,0.00000356,-0.00000013,-0.00000146,-0.00000196,0.0000342
 1,-0.00005438,0.00019815,-0.00350017,-0.00698784,0.02382973\\0.0000199
 9,0.00001838,-0.00000115,0.00004668,0.00002712,-0.00000250,-0.00002603
 ,-0.00003246,0.00000159,0.00003544,0.00002845,-0.00000199,0.00010607,-
 0.00006938,-0.00000424,-0.00005694,0.00005208,0.00000211,-0.00005028,0
 .00003345,0.00000200,0.00005064,0.00004501,-0.00000289,-0.00010438,-0.
 00019509,0.00000709,0.00003877,0.00017394,-0.00000375,-0.00004114,-0.0
 0025293,0.00000474,0.00002916,0.00006561,-0.00000210,-0.00001219,-0.00
 006133,0.00000125,0.00010438,0.00019509,-0.00000709,-0.00005064,-0.000
 04501,0.00000289,0.00005028,-0.00003345,-0.00000200,-0.00010607,0.0000
 6938,0.00000424,0.00005694,-0.00005208,-0.00000211,-0.00001999,-0.0000
 1838,0.00000115,-0.00004668,-0.00002712,0.00000250,0.00002603,0.000032
 46,-0.00000159,-0.00003544,-0.00002845,0.00000199,-0.00003877,-0.00017
 394,0.00000375,0.00004114,0.00025293,-0.00000474,-0.00002916,-0.000065
 61,0.00000210,0.00001219,0.00006133,-0.00000125,-0.00001595,-0.0000075
 6,0.00000084,-0.00000568,-0.00001238,0.00000041,-0.00000183,-0.0000002
 8,0.00000009,-0.00001369,-0.00003051,0.00000098,0.00001373,-0.00000019
 ,-0.00000065,-0.00001387,-0.00000931,0.00000076,-0.00000523,-0.0000339
 6,0.00000062,0.00001311,-0.00002481,-0.00000034,0.00001387,0.00000931,
 -0.00000076,-0.00001373,0.00000019,0.00000065,0.00001369,0.00003051,-0
 .00000098,0.00001595,0.00000756,-0.00000084,0.00000568,0.00001238,-0.0
 0000041,0.00000183,0.00000028,-0.00000009,0.00000523,0.00003396,-0.000
 00062,-0.00001311,0.00002481,0.00000034\\\@
 The archive entry for this job was punched.


 IN THE LONG RUN, DIGGING FOR TRUTH HAS ALWAYS PROVED NOT ONLY 
 MORE INTERESTING BUT MORE PROFITABLE THAN DIGGING FOR GOLD.

                             -- GEORGE R. HARRISON
 Job cpu time:       0 days  0 hours 54 minutes 41.1 seconds.
 Elapsed time:       0 days  0 hours  6 minutes 50.2 seconds.
 File lengths (MBytes):  RWF=    480 Int=      0 D2E=      0 Chk=     15 Scr=      1
 Normal termination of Gaussian 16 at Tue Oct  8 22:54:18 2024.
