 Entering Gaussian System, Link 0=g16
 Initial command:
 /opt/g16/l1.exe "/tmp/Gau-1283028.inp" -scrdir="/tmp/"
 Entering Link 1 = /opt/g16/l1.exe PID=   1283030.
  
 Copyright (c) 1988-2019, Gaussian, Inc.  All Rights Reserved.
  
 This is part of the Gaussian(R) 16 program.  It is based on
 the Gaussian(R) 09 system (copyright 2009, Gaussian, Inc.),
 the Gaussian(R) 03 system (copyright 2003, Gaussian, Inc.),
 the Gaussian(R) 98 system (copyright 1998, Gaussian, Inc.),
 the Gaussian(R) 94 system (copyright 1995, Gaussian, Inc.),
 the Gaussian 92(TM) system (copyright 1992, Gaussian, Inc.),
 the Gaussian 90(TM) system (copyright 1990, Gaussian, Inc.),
 the Gaussian 88(TM) system (copyright 1988, Gaussian, Inc.),
 the Gaussian 86(TM) system (copyright 1986, Carnegie Mellon
 University), and the Gaussian 82(TM) system (copyright 1983,
 Carnegie Mellon University). Gaussian is a federally registered
 trademark of Gaussian, Inc.
  
 This software contains proprietary and confidential information,
 including trade secrets, belonging to Gaussian, Inc.
  
 This software is provided under written license and may be
 used, copied, transmitted, or stored only in accord with that
 written license.
  
 The following legend is applicable only to US Government
 contracts under FAR:
  
                    RESTRICTED RIGHTS LEGEND
  
 Use, reproduction and disclosure by the US Government is
 subject to restrictions as set forth in subparagraphs (a)
 and (c) of the Commercial Computer Software - Restricted
 Rights clause in FAR 52.227-19.
  
 Gaussian, Inc.
 340 Quinnipiac St., Bldg. 40, Wallingford CT 06492
  
  
 ---------------------------------------------------------------
 Warning -- This program may not be used in any manner that
 competes with the business of Gaussian, Inc. or will provide
 assistance to any competitor of Gaussian, Inc.  The licensee
 of this program is prohibited from giving any competitor of
 Gaussian, Inc. access to this program.  By using this program,
 the user acknowledges that Gaussian, Inc. is engaged in the
 business of creating and licensing software in the field of
 computational chemistry and represents and warrants to the
 licensee that it is not a competitor of Gaussian, Inc. and that
 it will not use this program in any manner prohibited above.
 ---------------------------------------------------------------
  

 Cite this work as:
 Gaussian 16, Revision C.01,
 M. J. Frisch, G. W. Trucks, H. B. Schlegel, G. E. Scuseria, 
 M. A. Robb, J. R. Cheeseman, G. Scalmani, V. Barone, 
 G. A. Petersson, H. Nakatsuji, X. Li, M. Caricato, A. V. Marenich, 
 J. Bloino, B. G. Janesko, R. Gomperts, B. Mennucci, H. P. Hratchian, 
 J. V. Ortiz, A. F. Izmaylov, J. L. Sonnenberg, D. Williams-Young, 
 F. Ding, F. Lipparini, F. Egidi, J. Goings, B. Peng, A. Petrone, 
 T. Henderson, D. Ranasinghe, V. G. Zakrzewski, J. Gao, N. Rega, 
 G. Zheng, W. Liang, M. Hada, M. Ehara, K. Toyota, R. Fukuda, 
 J. Hasegawa, M. Ishida, T. Nakajima, Y. Honda, O. Kitao, H. Nakai, 
 T. Vreven, K. Throssell, J. A. Montgomery, Jr., J. E. Peralta, 
 F. Ogliaro, M. J. Bearpark, J. J. Heyd, E. N. Brothers, K. N. Kudin, 
 V. N. Staroverov, T. A. Keith, R. Kobayashi, J. Normand, 
 K. Raghavachari, A. P. Rendell, J. C. Burant, S. S. Iyengar, 
 J. Tomasi, M. Cossi, J. M. Millam, M. Klene, C. Adamo, R. Cammi, 
 J. W. Ochterski, R. L. Martin, K. Morokuma, O. Farkas, 
 J. B. Foresman, and D. J. Fox, Gaussian, Inc., Wallingford CT, 2019.
 
 ******************************************
 Gaussian 16:  ES64L-G16RevC.01  3-Jul-2019
                 8-Oct-2024 
 ******************************************
 %nprocshared=8
 Will use up to    8 processors via shared memory.
 %mem=8800MB
 ----------------------------------------------------------------------
 #N opt freq B3LYP/def2SVPP symm=veryloose em=gd3bj scale=0.961 press=0
 .987
 ----------------------------------------------------------------------
 1/18=20,19=15,26=3,38=1,113=-987000,114=961000/1,3;
 2/9=110,12=2,17=2,18=2,40=1/2;
 3/5=43,7=202,11=2,25=1,30=1,71=1,74=-5,124=41/1,2,3;
 4//1;
 5/5=2,38=5/2;
 6/7=2,8=2,9=2,10=2,28=1/1;
 7//1,2,3,16;
 1/18=20,19=15,26=3/3(2);
 2/9=110/2;
 99//99;
 2/9=110/2;
 3/5=43,7=202,11=2,25=1,30=1,71=1,74=-5,124=41/1,2,3;
 4/5=5,16=3,69=1/1;
 5/5=2,38=5/2;
 7//1,2,3,16;
 1/18=20,19=15,26=3/3(-5);
 2/9=110/2;
 6/7=2,8=2,9=2,10=2,19=2,28=1/1;
 99/9=1/99;
 --------------------------------------
 c1ccc2c(c1)ccc1cc3c(ccc4ccccc43)cc12_2
 --------------------------------------
 Symbolic Z-matrix:
 Charge =  0 Multiplicity = 1
 C                    -5.7008   -0.2397    0.6379 
 C                    -5.1124    0.9942    0.4086 
 C                    -3.7259    1.0874    0.2523 
 C                    -2.8774   -0.0474    0.3193 
 C                    -3.5075   -1.2961    0.555 
 C                    -4.902    -1.3774    0.7105 
 C                    -2.7387   -2.459     0.6341 
 C                    -1.3558   -2.4097    0.4842 
 C                    -0.6997   -1.197     0.2508 
 C                     0.7016   -1.1798    0.1033 
 C                     1.4437    0.0015   -0.1348 
 C                     0.6997    1.197    -0.2209 
 C                     1.3558    2.4097   -0.4543 
 C                     2.7387    2.459    -0.6043 
 C                     3.5075    1.2961   -0.5252 
 C                     4.902     1.3774   -0.6807 
 C                     5.7008    0.2397   -0.6081 
 C                     5.1124   -0.9942   -0.3787 
 C                     3.7259   -1.0874   -0.2224 
 C                     2.8774    0.0474   -0.2895 
 C                    -0.7016    1.1798   -0.0734 
 C                    -1.4437   -0.0015    0.1646 
 H                    -6.7774   -0.3195    0.7603 
 H                    -5.7263    1.8892    0.35 
 H                    -3.3179    2.0781    0.0748 
 H                    -5.3805   -2.338     0.8912 
 H                    -3.2096   -3.423     0.8145 
 H                    -0.7934   -3.3387    0.5528 
 H                     1.2241   -2.1301    0.1789 
 H                     0.7934    3.3387   -0.5229 
 H                     3.2096    3.423    -0.7846 
 H                     5.3805    2.338    -0.8613 
 H                     6.7774    0.3195   -0.7305 
 H                     5.7263   -1.8892   -0.3202 
 H                     3.3179   -2.0782   -0.045 
 H                    -1.2241    2.1301   -0.1491 
 

 GradGradGradGradGradGradGradGradGradGradGradGradGradGradGradGradGradGrad
 Berny optimization.
 Initialization pass.
                           ----------------------------
                           !    Initial Parameters    !
                           ! (Angstroms and Degrees)  !
 --------------------------                            --------------------------
 ! Name  Definition              Value          Derivative Info.                !
 --------------------------------------------------------------------------------
 ! R1    R(1,2)                  1.3861         estimate D2E/DX2                !
 ! R2    R(1,6)                  1.392          estimate D2E/DX2                !
 ! R3    R(1,23)                 1.0865         estimate D2E/DX2                !
 ! R4    R(2,3)                  1.3984         estimate D2E/DX2                !
 ! R5    R(2,24)                 1.0869         estimate D2E/DX2                !
 ! R6    R(3,4)                  1.4185         estimate D2E/DX2                !
 ! R7    R(3,25)                 1.086          estimate D2E/DX2                !
 ! R8    R(4,5)                  1.4184         estimate D2E/DX2                !
 ! R9    R(4,22)                 1.4428         estimate D2E/DX2                !
 ! R10   R(5,6)                  1.4055         estimate D2E/DX2                !
 ! R11   R(5,7)                  1.3963         estimate D2E/DX2                !
 ! R12   R(6,26)                 1.0883         estimate D2E/DX2                !
 ! R13   R(7,8)                  1.3919         estimate D2E/DX2                !
 ! R14   R(7,27)                 1.0879         estimate D2E/DX2                !
 ! R15   R(8,9)                  1.3984         estimate D2E/DX2                !
 ! R16   R(8,28)                 1.0881         estimate D2E/DX2                !
 ! R17   R(9,10)                 1.4091         estimate D2E/DX2                !
 ! R18   R(9,22)                 1.4107         estimate D2E/DX2                !
 ! R19   R(10,11)                1.4152         estimate D2E/DX2                !
 ! R20   R(10,29)                1.0871         estimate D2E/DX2                !
 ! R21   R(11,12)                1.4107         estimate D2E/DX2                !
 ! R22   R(11,20)                1.4428         estimate D2E/DX2                !
 ! R23   R(12,13)                1.3984         estimate D2E/DX2                !
 ! R24   R(12,21)                1.4091         estimate D2E/DX2                !
 ! R25   R(13,14)                1.3919         estimate D2E/DX2                !
 ! R26   R(13,30)                1.0881         estimate D2E/DX2                !
 ! R27   R(14,15)                1.3963         estimate D2E/DX2                !
 ! R28   R(14,31)                1.0879         estimate D2E/DX2                !
 ! R29   R(15,16)                1.4055         estimate D2E/DX2                !
 ! R30   R(15,20)                1.4184         estimate D2E/DX2                !
 ! R31   R(16,17)                1.392          estimate D2E/DX2                !
 ! R32   R(16,32)                1.0883         estimate D2E/DX2                !
 ! R33   R(17,18)                1.3861         estimate D2E/DX2                !
 ! R34   R(17,33)                1.0865         estimate D2E/DX2                !
 ! R35   R(18,19)                1.3984         estimate D2E/DX2                !
 ! R36   R(18,34)                1.0869         estimate D2E/DX2                !
 ! R37   R(19,20)                1.4185         estimate D2E/DX2                !
 ! R38   R(19,35)                1.0861         estimate D2E/DX2                !
 ! R39   R(21,22)                1.4152         estimate D2E/DX2                !
 ! R40   R(21,36)                1.0871         estimate D2E/DX2                !
 ! A1    A(2,1,6)              119.5107         estimate D2E/DX2                !
 ! A2    A(2,1,23)             120.3088         estimate D2E/DX2                !
 ! A3    A(6,1,23)             120.1804         estimate D2E/DX2                !
 ! A4    A(1,2,3)              119.9145         estimate D2E/DX2                !
 ! A5    A(1,2,24)             120.1443         estimate D2E/DX2                !
 ! A6    A(3,2,24)             119.9412         estimate D2E/DX2                !
 ! A7    A(2,3,4)              122.3082         estimate D2E/DX2                !
 ! A8    A(2,3,25)             116.8433         estimate D2E/DX2                !
 ! A9    A(4,3,25)             120.8485         estimate D2E/DX2                !
 ! A10   A(3,4,5)              116.5133         estimate D2E/DX2                !
 ! A11   A(3,4,22)             124.3251         estimate D2E/DX2                !
 ! A12   A(5,4,22)             119.1616         estimate D2E/DX2                !
 ! A13   A(4,5,6)              120.6684         estimate D2E/DX2                !
 ! A14   A(4,5,7)              119.8694         estimate D2E/DX2                !
 ! A15   A(6,5,7)              119.4621         estimate D2E/DX2                !
 ! A16   A(1,6,5)              121.0849         estimate D2E/DX2                !
 ! A17   A(1,6,26)             118.5393         estimate D2E/DX2                !
 ! A18   A(5,6,26)             120.3758         estimate D2E/DX2                !
 ! A19   A(5,7,8)              120.7604         estimate D2E/DX2                !
 ! A20   A(5,7,27)             120.6003         estimate D2E/DX2                !
 ! A21   A(8,7,27)             118.6393         estimate D2E/DX2                !
 ! A22   A(7,8,9)              120.9866         estimate D2E/DX2                !
 ! A23   A(7,8,28)             118.4561         estimate D2E/DX2                !
 ! A24   A(9,8,28)             120.5573         estimate D2E/DX2                !
 ! A25   A(8,9,10)             119.6443         estimate D2E/DX2                !
 ! A26   A(8,9,22)             119.8445         estimate D2E/DX2                !
 ! A27   A(10,9,22)            120.5112         estimate D2E/DX2                !
 ! A28   A(9,10,11)            123.3153         estimate D2E/DX2                !
 ! A29   A(9,10,29)            117.3878         estimate D2E/DX2                !
 ! A30   A(11,10,29)           119.2969         estimate D2E/DX2                !
 ! A31   A(10,11,12)           116.1728         estimate D2E/DX2                !
 ! A32   A(10,11,20)           124.449          estimate D2E/DX2                !
 ! A33   A(12,11,20)           119.3782         estimate D2E/DX2                !
 ! A34   A(11,12,13)           119.8438         estimate D2E/DX2                !
 ! A35   A(11,12,21)           120.5118         estimate D2E/DX2                !
 ! A36   A(13,12,21)           119.6443         estimate D2E/DX2                !
 ! A37   A(12,13,14)           120.9871         estimate D2E/DX2                !
 ! A38   A(12,13,30)           120.5573         estimate D2E/DX2                !
 ! A39   A(14,13,30)           118.4556         estimate D2E/DX2                !
 ! A40   A(13,14,15)           120.7598         estimate D2E/DX2                !
 ! A41   A(13,14,31)           118.6397         estimate D2E/DX2                !
 ! A42   A(15,14,31)           120.6005         estimate D2E/DX2                !
 ! A43   A(14,15,16)           119.4621         estimate D2E/DX2                !
 ! A44   A(14,15,20)           119.8694         estimate D2E/DX2                !
 ! A45   A(16,15,20)           120.6684         estimate D2E/DX2                !
 ! A46   A(15,16,17)           121.0849         estimate D2E/DX2                !
 ! A47   A(15,16,32)           120.3757         estimate D2E/DX2                !
 ! A48   A(17,16,32)           118.5395         estimate D2E/DX2                !
 ! A49   A(16,17,18)           119.5106         estimate D2E/DX2                !
 ! A50   A(16,17,33)           120.1804         estimate D2E/DX2                !
 ! A51   A(18,17,33)           120.309          estimate D2E/DX2                !
 ! A52   A(17,18,19)           119.9146         estimate D2E/DX2                !
 ! A53   A(17,18,34)           120.1433         estimate D2E/DX2                !
 ! A54   A(19,18,34)           119.9421         estimate D2E/DX2                !
 ! A55   A(18,19,20)           122.3076         estimate D2E/DX2                !
 ! A56   A(18,19,35)           116.841          estimate D2E/DX2                !
 ! A57   A(20,19,35)           120.8514         estimate D2E/DX2                !
 ! A58   A(11,20,15)           119.1616         estimate D2E/DX2                !
 ! A59   A(11,20,19)           124.3245         estimate D2E/DX2                !
 ! A60   A(15,20,19)           116.5139         estimate D2E/DX2                !
 ! A61   A(12,21,22)           123.3153         estimate D2E/DX2                !
 ! A62   A(12,21,36)           117.3869         estimate D2E/DX2                !
 ! A63   A(22,21,36)           119.2978         estimate D2E/DX2                !
 ! A64   A(4,22,9)             119.3775         estimate D2E/DX2                !
 ! A65   A(4,22,21)            124.4489         estimate D2E/DX2                !
 ! A66   A(9,22,21)            116.1735         estimate D2E/DX2                !
 ! D1    D(6,1,2,3)              0.0038         estimate D2E/DX2                !
 ! D2    D(6,1,2,24)          -179.9992         estimate D2E/DX2                !
 ! D3    D(23,1,2,3)           179.9987         estimate D2E/DX2                !
 ! D4    D(23,1,2,24)           -0.0043         estimate D2E/DX2                !
 ! D5    D(2,1,6,5)             -0.0037         estimate D2E/DX2                !
 ! D6    D(2,1,6,26)           179.9956         estimate D2E/DX2                !
 ! D7    D(23,1,6,5)          -179.9986         estimate D2E/DX2                !
 ! D8    D(23,1,6,26)            0.0007         estimate D2E/DX2                !
 ! D9    D(1,2,3,4)             -0.0011         estimate D2E/DX2                !
 ! D10   D(1,2,3,25)           179.9961         estimate D2E/DX2                !
 ! D11   D(24,2,3,4)          -179.9981         estimate D2E/DX2                !
 ! D12   D(24,2,3,25)           -0.0008         estimate D2E/DX2                !
 ! D13   D(2,3,4,5)             -0.0017         estimate D2E/DX2                !
 ! D14   D(2,3,4,22)          -179.9984         estimate D2E/DX2                !
 ! D15   D(25,3,4,5)          -179.9988         estimate D2E/DX2                !
 ! D16   D(25,3,4,22)            0.0044         estimate D2E/DX2                !
 ! D17   D(3,4,5,6)              0.0018         estimate D2E/DX2                !
 ! D18   D(3,4,5,7)           -179.9996         estimate D2E/DX2                !
 ! D19   D(22,4,5,6)           179.9988         estimate D2E/DX2                !
 ! D20   D(22,4,5,7)            -0.0026         estimate D2E/DX2                !
 ! D21   D(3,4,22,9)           179.9955         estimate D2E/DX2                !
 ! D22   D(3,4,22,21)            0.0013         estimate D2E/DX2                !
 ! D23   D(5,4,22,9)            -0.0012         estimate D2E/DX2                !
 ! D24   D(5,4,22,21)         -179.9954         estimate D2E/DX2                !
 ! D25   D(4,5,6,1)              0.0008         estimate D2E/DX2                !
 ! D26   D(4,5,6,26)          -179.9985         estimate D2E/DX2                !
 ! D27   D(7,5,6,1)           -179.9978         estimate D2E/DX2                !
 ! D28   D(7,5,6,26)             0.0029         estimate D2E/DX2                !
 ! D29   D(4,5,7,8)              0.0029         estimate D2E/DX2                !
 ! D30   D(4,5,7,27)           179.9971         estimate D2E/DX2                !
 ! D31   D(6,5,7,8)           -179.9985         estimate D2E/DX2                !
 ! D32   D(6,5,7,27)            -0.0043         estimate D2E/DX2                !
 ! D33   D(5,7,8,9)              0.0008         estimate D2E/DX2                !
 ! D34   D(5,7,8,28)           179.997          estimate D2E/DX2                !
 ! D35   D(27,7,8,9)          -179.9935         estimate D2E/DX2                !
 ! D36   D(27,7,8,28)            0.0027         estimate D2E/DX2                !
 ! D37   D(7,8,9,10)          -179.9965         estimate D2E/DX2                !
 ! D38   D(7,8,9,22)            -0.0046         estimate D2E/DX2                !
 ! D39   D(28,8,9,10)            0.0073         estimate D2E/DX2                !
 ! D40   D(28,8,9,22)          179.9992         estimate D2E/DX2                !
 ! D41   D(8,9,10,11)          179.9964         estimate D2E/DX2                !
 ! D42   D(8,9,10,29)           -0.0048         estimate D2E/DX2                !
 ! D43   D(22,9,10,11)           0.0046         estimate D2E/DX2                !
 ! D44   D(22,9,10,29)        -179.9966         estimate D2E/DX2                !
 ! D45   D(8,9,22,4)             0.0048         estimate D2E/DX2                !
 ! D46   D(8,9,22,21)          179.9995         estimate D2E/DX2                !
 ! D47   D(10,9,22,4)          179.9966         estimate D2E/DX2                !
 ! D48   D(10,9,22,21)          -0.0087         estimate D2E/DX2                !
 ! D49   D(9,10,11,12)           0.0001         estimate D2E/DX2                !
 ! D50   D(9,10,11,20)         179.9965         estimate D2E/DX2                !
 ! D51   D(29,10,11,12)       -179.9987         estimate D2E/DX2                !
 ! D52   D(29,10,11,20)         -0.0022         estimate D2E/DX2                !
 ! D53   D(10,11,12,13)        179.9964         estimate D2E/DX2                !
 ! D54   D(10,11,12,21)         -0.0001         estimate D2E/DX2                !
 ! D55   D(20,11,12,13)         -0.0002         estimate D2E/DX2                !
 ! D56   D(20,11,12,21)       -179.9967         estimate D2E/DX2                !
 ! D57   D(10,11,20,15)       -179.9997         estimate D2E/DX2                !
 ! D58   D(10,11,20,19)         -0.0013         estimate D2E/DX2                !
 ! D59   D(12,11,20,15)         -0.0034         estimate D2E/DX2                !
 ! D60   D(12,11,20,19)        179.9951         estimate D2E/DX2                !
 ! D61   D(11,12,13,14)          0.0048         estimate D2E/DX2                !
 ! D62   D(11,12,13,30)        179.9962         estimate D2E/DX2                !
 ! D63   D(21,12,13,14)       -179.9987         estimate D2E/DX2                !
 ! D64   D(21,12,13,30)         -0.0073         estimate D2E/DX2                !
 ! D65   D(11,12,21,22)         -0.0047         estimate D2E/DX2                !
 ! D66   D(11,12,21,36)       -179.9929         estimate D2E/DX2                !
 ! D67   D(13,12,21,22)        179.9988         estimate D2E/DX2                !
 ! D68   D(13,12,21,36)          0.0107         estimate D2E/DX2                !
 ! D69   D(12,13,14,15)         -0.0056         estimate D2E/DX2                !
 ! D70   D(12,13,14,31)        179.9992         estimate D2E/DX2                !
 ! D71   D(30,13,14,15)       -179.9972         estimate D2E/DX2                !
 ! D72   D(30,13,14,31)          0.0076         estimate D2E/DX2                !
 ! D73   D(13,14,15,16)       -179.9968         estimate D2E/DX2                !
 ! D74   D(13,14,15,20)          0.0018         estimate D2E/DX2                !
 ! D75   D(31,14,15,16)         -0.0017         estimate D2E/DX2                !
 ! D76   D(31,14,15,20)        179.9969         estimate D2E/DX2                !
 ! D77   D(14,15,16,17)        179.9978         estimate D2E/DX2                !
 ! D78   D(14,15,16,32)          0.0031         estimate D2E/DX2                !
 ! D79   D(20,15,16,17)         -0.0008         estimate D2E/DX2                !
 ! D80   D(20,15,16,32)       -179.9955         estimate D2E/DX2                !
 ! D81   D(14,15,20,11)          0.0026         estimate D2E/DX2                !
 ! D82   D(14,15,20,19)       -179.996          estimate D2E/DX2                !
 ! D83   D(16,15,20,11)       -179.9988         estimate D2E/DX2                !
 ! D84   D(16,15,20,19)          0.0026         estimate D2E/DX2                !
 ! D85   D(15,16,17,18)         -0.001          estimate D2E/DX2                !
 ! D86   D(15,16,17,33)        179.9986         estimate D2E/DX2                !
 ! D87   D(32,16,17,18)        179.9938         estimate D2E/DX2                !
 ! D88   D(32,16,17,33)         -0.0066         estimate D2E/DX2                !
 ! D89   D(16,17,18,19)          0.0008         estimate D2E/DX2                !
 ! D90   D(16,17,18,34)        179.9932         estimate D2E/DX2                !
 ! D91   D(33,17,18,19)       -179.9988         estimate D2E/DX2                !
 ! D92   D(33,17,18,34)         -0.0065         estimate D2E/DX2                !
 ! D93   D(17,18,19,20)          0.0012         estimate D2E/DX2                !
 ! D94   D(17,18,19,35)        179.9926         estimate D2E/DX2                !
 ! D95   D(34,18,19,20)       -179.9912         estimate D2E/DX2                !
 ! D96   D(34,18,19,35)          0.0002         estimate D2E/DX2                !
 ! D97   D(18,19,20,11)        179.9986         estimate D2E/DX2                !
 ! D98   D(18,19,20,15)         -0.0028         estimate D2E/DX2                !
 ! D99   D(35,19,20,11)          0.0076         estimate D2E/DX2                !
 ! D100  D(35,19,20,15)       -179.9939         estimate D2E/DX2                !
 ! D101  D(12,21,22,4)        -179.9966         estimate D2E/DX2                !
 ! D102  D(12,21,22,9)           0.009          estimate D2E/DX2                !
 ! D103  D(36,21,22,4)          -0.0087         estimate D2E/DX2                !
 ! D104  D(36,21,22,9)         179.9969         estimate D2E/DX2                !
 --------------------------------------------------------------------------------
 Trust Radius=3.00D-01 FncErr=1.00D-07 GrdErr=1.00D-06 EigMax=2.50D+02 EigMin=1.00D-04
 Number of steps in this run=    216 maximum allowed number of steps=    216.
 GradGradGradGradGradGradGradGradGradGradGradGradGradGradGradGradGradGrad

                          Input orientation:                          
 ---------------------------------------------------------------------
 Center     Atomic      Atomic             Coordinates (Angstroms)
 Number     Number       Type             X           Y           Z
 ---------------------------------------------------------------------
      1          6           0       -5.700800   -0.239700    0.637900
      2          6           0       -5.112400    0.994200    0.408600
      3          6           0       -3.725900    1.087400    0.252300
      4          6           0       -2.877400   -0.047400    0.319300
      5          6           0       -3.507500   -1.296100    0.555000
      6          6           0       -4.902000   -1.377400    0.710500
      7          6           0       -2.738700   -2.459000    0.634100
      8          6           0       -1.355800   -2.409700    0.484200
      9          6           0       -0.699700   -1.197000    0.250800
     10          6           0        0.701600   -1.179800    0.103300
     11          6           0        1.443700    0.001500   -0.134800
     12          6           0        0.699700    1.197000   -0.220900
     13          6           0        1.355800    2.409700   -0.454300
     14          6           0        2.738700    2.459000   -0.604300
     15          6           0        3.507500    1.296100   -0.525200
     16          6           0        4.902000    1.377400   -0.680700
     17          6           0        5.700800    0.239700   -0.608100
     18          6           0        5.112400   -0.994200   -0.378700
     19          6           0        3.725900   -1.087400   -0.222400
     20          6           0        2.877400    0.047400   -0.289500
     21          6           0       -0.701600    1.179800   -0.073400
     22          6           0       -1.443700   -0.001500    0.164600
     23          1           0       -6.777400   -0.319500    0.760300
     24          1           0       -5.726300    1.889200    0.350000
     25          1           0       -3.317900    2.078100    0.074800
     26          1           0       -5.380500   -2.338000    0.891200
     27          1           0       -3.209600   -3.423000    0.814500
     28          1           0       -0.793400   -3.338700    0.552800
     29          1           0        1.224100   -2.130100    0.178900
     30          1           0        0.793400    3.338700   -0.522900
     31          1           0        3.209600    3.423000   -0.784600
     32          1           0        5.380500    2.338000   -0.861300
     33          1           0        6.777400    0.319500   -0.730500
     34          1           0        5.726300   -1.889200   -0.320200
     35          1           0        3.317900   -2.078200   -0.045000
     36          1           0       -1.224100    2.130100   -0.149100
 ---------------------------------------------------------------------
                    Distance matrix (angstroms):
                    1          2          3          4          5
     1  C    0.000000
     2  C    1.386110   0.000000
     3  C    2.410417   1.398391   0.000000
     4  C    2.847819   2.467414   1.418525   0.000000
     5  C    2.435861   2.800466   2.412550   1.418391   0.000000
     6  C    1.392018   2.399979   2.769187   2.453761   1.405496
     7  C    3.701262   4.196414   3.700985   2.436011   1.396297
     8  C    4.859172   5.069940   4.230941   2.814768   2.423826
     9  C    5.106591   4.929318   3.791619   2.463463   2.825969
    10  C    6.493097   6.214667   4.976460   3.760083   4.234865
    11  C    7.190210   6.653058   5.296583   4.345170   5.164685
    12  C    6.615742   5.849607   4.452175   3.825701   4.951576
    13  C    7.616287   6.677264   5.298248   4.955379   6.197042
    14  C    8.947134   8.050551   6.663790   6.218976   7.379686
    15  C    9.407671   8.675587   7.278059   6.579143   7.556226
    16  C   10.806160  10.080755   8.683044   7.971770   8.910345
    17  C   11.479496  10.887068   9.503765   8.632961   9.407671
    18  C   10.887058  10.446057   9.102020   8.075923   8.675576
    19  C    9.503756   9.102020   7.777173   6.706609   7.278048
    20  C    8.632961   8.075932   6.706617   5.787689   6.579143
    21  C    5.245277   4.440938   3.043191   2.528703   3.794475
    22  C    4.289948   3.809241   2.530184   1.442752   2.467321
    23  H    1.086470   2.149820   3.398394   3.934275   3.418792
    24  H    2.148430   1.086891   2.157320   3.444937   3.887317
    25  H    3.371571   2.122850   1.086028   2.184393   3.413468
    26  H    2.137666   3.377623   3.857364   3.440847   2.169496
    27  H    4.046068   4.826703   4.574532   3.427865   2.163282
    28  H    5.804620   6.119524   5.317915   3.902593   3.396845
    29  H    7.192950   7.068610   5.904252   4.602136   4.819237
    30  H    7.505134   6.422059   5.108166   5.064558   6.414123
    31  H    9.738280   8.750913   7.391302   7.093225   8.317684
    32  H   11.475511  10.654548   9.259083   8.676224   9.706139
    33  H   12.565457  11.963282  10.577092   9.718635  10.490083
    34  H   11.585224  11.239331   9.926328   8.821839   9.294127
    35  H    9.229485   8.984172   7.728165   6.529824   6.896214
    36  H    5.126028   4.089031   2.739954   2.773861   4.177142
                    6          7          8          9         10
     6  C    0.000000
     7  C    2.419827   0.000000
     8  C    3.700323   1.391874   0.000000
     9  C    4.231217   2.428391   1.398422   0.000000
    10  C    5.639864   3.708607   2.427063   1.409146   0.000000
    11  C    6.548573   4.913017   3.746231   2.485810   1.415229
    12  C    6.234909   5.091164   4.210764   2.812838   2.398810
    13  C    7.406683   6.453974   5.608937   4.210764   3.690990
    14  C    8.650258   7.464735   6.453991   5.091181   4.229816
    15  C    8.910345   7.379686   6.197058   4.951591   3.794492
    16  C   10.278267   8.650258   7.406698   6.234923   4.979688
    17  C   10.806160   8.947134   7.616301   6.615755   5.245290
    18  C   10.080744   8.050539   6.677264   5.849607   4.440938
    19  C    8.683033   6.663778   5.298248   4.452175   3.043191
    20  C    7.971770   6.218976   4.955394   3.825716   2.528719
    21  C    4.979672   4.229799   3.690990   2.398810   2.750983
    22  C    3.761774   2.817226   2.430905   1.410740   2.448359
    23  H    2.153778   4.572142   5.817122   6.161821   7.556931
    24  H    3.388231   5.283305   6.131869   5.899252   7.127238
    25  H    3.854085   4.607989   4.915058   4.196692   5.174080
    26  H    1.088286   2.657038   4.045862   4.860235   6.241326
    27  H    2.656974   1.087928   2.138329   3.401828   4.564563
    28  H    4.555454   2.136510   1.088136   2.164916   2.664193
    29  H    6.195019   4.002395   2.612904   2.139358   1.087102
    30  H    7.496696   6.886778   6.219117   4.837410   4.562608
    31  H    9.543439   8.484863   7.514860   6.139958   5.316408
    32  H   11.045567   9.548237   8.350375   7.120521   5.932746
    33  H   11.889673  10.006915   8.664466   7.692187   6.313356
    34  H   10.690418   8.537657   7.146616   6.488348   5.092172
    35  H    8.284241   6.106438   4.715232   4.123727   2.770224
    36  H    5.154456   4.895636   4.585651   3.391830   3.837638
                   11         12         13         14         15
    11  C    0.000000
    12  C    1.410734   0.000000
    13  C    2.430892   1.398422   0.000000
    14  C    2.817226   2.428407   1.391885   0.000000
    15  C    2.467321   2.825980   2.423829   1.396297   0.000000
    16  C    3.761774   4.231227   3.700329   2.419827   1.405496
    17  C    4.289948   5.106599   4.859175   3.701262   2.435861
    18  C    3.809234   4.929318   5.069940   4.196420   2.800471
    19  C    2.530181   3.791619   4.230941   3.700995   2.412563
    20  C    1.442752   2.463466   2.814762   2.436011   1.418391
    21  C    2.448361   1.409146   2.427063   3.708621   4.234876
    22  C    2.902883   2.485795   3.746214   4.913017   5.164685
    23  H    8.275913   7.692175   8.664452  10.006915  10.490083
    24  H    7.430164   6.488339   7.146605   8.537657   9.294127
    25  H    5.198945   4.123698   4.715228   6.106445   6.896203
    26  H    7.286676   7.120521   8.350375   9.548253   9.706154
    27  H    5.855047   6.139958   7.514860   8.484880   8.317700
    28  H    4.078523   4.837410   6.219117   6.886794   6.414140
    29  H    2.165722   3.391818   4.585637   4.895636   4.177142
    30  H    3.422048   2.164916   1.088136   2.136514   3.396845
    31  H    3.904780   3.401828   2.138329   1.087911   2.163270
    32  H    4.635238   4.860235   4.045862   2.657028   2.169481
    33  H    5.376275   6.161829   5.817127   4.572142   3.418792
    34  H    4.685059   5.899254   6.131867   5.283305   3.887317
    35  H    2.801043   4.196766   4.915141   4.608088   3.413567
    36  H    3.412960   2.139354   2.612892   4.002395   4.819237
                   16         17         18         19         20
    16  C    0.000000
    17  C    1.392018   0.000000
    18  C    2.399991   1.386127   0.000000
    19  C    2.769204   2.410433   1.398391   0.000000
    20  C    2.453761   2.847819   2.467410   1.418529   0.000000
    21  C    5.639875   6.493105   6.214667   4.976460   3.760089
    22  C    6.548573   7.190210   6.653050   5.296575   4.345170
    23  H   11.889673  12.565457  11.963272  10.577083   9.718635
    24  H   10.690418  11.585224  11.239325   9.926322   8.821839
    25  H    8.284233   9.229465   8.984133   7.728120   6.529793
    26  H   11.045582  11.475524  10.654548   9.259083   8.676238
    27  H    9.543454   9.738295   8.750913   7.391302   7.093241
    28  H    7.496713   7.505149   6.422059   5.108166   5.064575
    29  H    5.154456   5.126028   4.089017   2.739939   2.773861
    30  H    4.555457   5.804622   6.119524   5.317915   3.902587
    31  H    2.656971   4.046063   4.826703   4.574532   3.427850
    32  H    1.088270   2.137654   3.377623   3.857364   3.440830
    33  H    2.153778   1.086470   2.149836   3.398409   3.934275
    34  H    3.388231   2.148430   1.086886   2.157324   3.444937
    35  H    3.854174   3.371640   2.122885   1.086103   2.184490
    36  H    6.195019   7.192950   7.068607   5.904251   4.602136
                   21         22         23         24         25
    21  C    0.000000
    22  C    1.415212   0.000000
    23  H    6.313343   5.376275   0.000000
    24  H    5.092163   4.685059   2.480224   0.000000
    25  H    2.770186   2.800969   4.264568   2.431421   0.000000
    26  H    5.932746   4.635253   2.458212   4.275710   4.941940
    27  H    5.316408   3.904796   4.729043   5.896525   5.551665
    28  H    4.562608   3.422060   6.705735   7.190658   5.995274
    29  H    3.837631   3.412960   8.224372   8.030698   6.192701
    30  H    2.664193   4.078506   8.505648   6.735688   4.341560
    31  H    4.564563   5.855030  10.776511   9.137295   6.719790
    32  H    6.241326   7.286662  12.550156  11.181667   8.752485
    33  H    7.556940   8.275913  13.651498  12.648081  10.278923
    34  H    7.127241   7.430164  12.648081  12.078391   9.883979
    35  H    5.174143   5.198985  10.278940   9.884019   7.830902
    36  H    1.087109   2.165722   6.137319   4.536181   2.106379
                   26         27         28         29         30
    26  H    0.000000
    27  H    2.428150   0.000000
    28  H    4.707165   2.431793   0.000000
    29  H    6.646152   4.661896   2.381349   0.000000
    30  H    8.505389   7.970774   6.947139   5.530443   0.000000
    31  H   10.477941   9.520030   7.970774   5.975572   2.431793
    32  H   11.863193  10.477941   8.505389   6.190444   4.707165
    33  H   12.550169  10.776525   8.505663   6.137319   6.705738
    34  H   11.181678   9.137308   6.735701   4.536181   7.190656
    35  H    8.752493   6.719783   4.341545   2.106377   5.995356
    36  H    6.190461   5.975588   5.530456   4.924487   2.381333
                   31         32         33         34         35
    31  H    0.000000
    32  H    2.428150   0.000000
    33  H    4.729042   2.458207   0.000000
    34  H    5.896517   4.275697   2.480224   0.000000
    35  H    5.551751   4.942012   4.264624   2.431429   0.000000
    36  H    4.661882   6.646141   8.224372   8.030698   6.192769
                   36
    36  H    0.000000
 Stoichiometry    C22H14
 Framework group  C2H[SGH(C22H14)]
 Deg. of freedom    35
 Full point group                 C2H     NOp   4
 Largest Abelian subgroup         C2H     NOp   4
 Largest concise Abelian subgroup C2      NOp   2
                         Standard orientation:                         
 ---------------------------------------------------------------------
 Center     Atomic      Atomic             Coordinates (Angstroms)
 Number     Number       Type             X           Y           Z
 ---------------------------------------------------------------------
      1          6           0       -0.626921    5.705405   -0.000000
      2          6           0       -1.765900    4.915450   -0.000000
      3          6           0       -1.648173    3.522023   -0.000000
      4          6           0       -0.389685    2.867485   -0.000000
      5          6           0        0.757703    3.701351   -0.000000
      6          6           0        0.626915    5.100749   -0.000000
      7          6           0        2.032065    3.130694   -0.000000
      8          6           0        2.192952    1.748150   -0.000000
      9          6           0        1.085357    0.894441   -0.000000
     10          6           0        1.280983   -0.501060   -0.000000
     11          6           0        0.217695   -1.435025    0.000000
     12          6           0       -1.085357   -0.894441   -0.000000
     13          6           0       -2.192952   -1.748150   -0.000000
     14          6           0       -2.032065   -3.130694   -0.000000
     15          6           0       -0.757703   -3.701351   -0.000000
     16          6           0       -0.626915   -5.100749   -0.000000
     17          6           0        0.626921   -5.705405   -0.000000
     18          6           0        1.765900   -4.915450   -0.000000
     19          6           0        1.648173   -3.522023   -0.000000
     20          6           0        0.389685   -2.867485   -0.000000
     21          6           0       -1.280983    0.501060   -0.000000
     22          6           0       -0.217695    1.435025    0.000000
     23          1           0       -0.710935    6.788622   -0.000000
     24          1           0       -2.750059    5.376713   -0.000000
     25          1           0       -2.572450    2.951788   -0.000000
     26          1           0        1.510525    5.736044   -0.000000
     27          1           0        2.920217    3.759004   -0.000000
     28          1           0        3.203141    1.343726   -0.000000
     29          1           0        2.306314   -0.862294   -0.000000
     30          1           0       -3.203141   -1.343726   -0.000000
     31          1           0       -2.920217   -3.759004   -0.000000
     32          1           0       -1.510525   -5.736044   -0.000000
     33          1           0        0.710935   -6.788622   -0.000000
     34          1           0        2.750059   -5.376713   -0.000000
     35          1           0        2.572450   -2.951788   -0.000000
     36          1           0       -2.306314    0.862294   -0.000000
 ---------------------------------------------------------------------
 Rotational constants (GHZ):           0.9356433           0.1459128           0.1262277
 Standard basis: def2SVPP (5D, 7F)
 There are   135 symmetry adapted cartesian basis functions of AG  symmetry.
 There are    44 symmetry adapted cartesian basis functions of BG  symmetry.
 There are    44 symmetry adapted cartesian basis functions of AU  symmetry.
 There are   135 symmetry adapted cartesian basis functions of BU  symmetry.
 There are   124 symmetry adapted basis functions of AG  symmetry.
 There are    44 symmetry adapted basis functions of BG  symmetry.
 There are    44 symmetry adapted basis functions of AU  symmetry.
 There are   124 symmetry adapted basis functions of BU  symmetry.
   336 basis functions,   606 primitive gaussians,   358 cartesian basis functions
    73 alpha electrons       73 beta electrons
       nuclear repulsion energy      1529.2753306875 Hartrees.
 NAtoms=   36 NActive=   36 NUniq=   18 SFac= 4.00D+00 NAtFMM=   60 NAOKFM=F Big=F
 Integral buffers will be    131072 words long.
 Raffenetti 2 integral format.
 Two-electron integral symmetry is turned on.
 Nuclear repulsion after empirical dispersion term =     1529.1837442879 Hartrees.
 One-electron integrals computed using PRISM.
   4 Symmetry operations used in ECPInt.
 ECPInt:  NShTT=   12880 NPrTT=   51688 LenC2=   11544 LenP2D=   31480.
 LDataN:  DoStor=T MaxTD1= 4 Len=   56
 NBasis=   336 RedAO= T EigKep=  2.08D-04  NBF=   124    44    44   124
 NBsUse=   336 1.00D-06 EigRej= -1.00D+00 NBFU=   124    44    44   124
 ExpMin= 1.22D-01 ExpMax= 1.24D+03 ExpMxC= 1.86D+02 IAcc=3 IRadAn=         5 AccDes= 0.00D+00
 Harris functional with IExCor=  402 and IRadAn=       5 diagonalized for initial guess.
 HarFok:  IExCor=  402 AccDes= 0.00D+00 IRadAn=         5 IDoV= 1 UseB2=F ITyADJ=14
 ICtDFT=  3500011 ScaDFX=  1.000000  1.000000  1.000000  1.000000
 FoFCou: FMM=F IPFlag=           0 FMFlag=      100000 FMFlg1=           0
         NFxFlg=           0 DoJE=T BraDBF=F KetDBF=T FulRan=T
         wScrn=  0.000000 ICntrl=       500 IOpCl=  0 I1Cent=   200000004 NGrid=           0
         NMat0=    1 NMatS0=      1 NMatT0=    0 NMatD0=    1 NMtDS0=    0 NMtDT0=    0
 Petite list used in FoFCou.
 Initial guess orbital symmetries:
       Occupied  (BU) (AG) (AG) (BU) (BU) (AG) (BU) (AG) (AG) (BU)
                 (BU) (AG) (AG) (BU) (AG) (BU) (BU) (AG) (BU) (AG)
                 (BU) (AG) (AG) (BU) (AG) (BU) (AG) (BU) (BU) (AG)
                 (AG) (BU) (BU) (AG) (AG) (BU) (AG) (BU) (AG) (BU)
                 (AG) (BU) (AG) (BU) (AG) (BU) (AG) (BU) (BU) (AG)
                 (BU) (AG) (BU) (AG) (BU) (AU) (AG) (BU) (BG) (AG)
                 (BU) (BU) (AG) (AU) (AG) (BG) (AU) (BG) (BG) (AU)
                 (AU) (BG) (BG)
       Virtual   (AU) (AU) (BG) (BG) (AU) (AU) (BG) (AU) (BG) (AG)
                 (BU) (BU) (AG) (AG) (BU) (AU) (BU) (AG) (BU) (AG)
                 (AG) (BG) (BU) (AG) (AG) (BU) (AG) (BU) (BU) (BU)
                 (AG) (BU) (AG) (BU) (AG) (BU) (AG) (AG) (AG) (BU)
                 (BU) (AG) (BU) (BU) (AG) (AG) (BU) (BU) (AG) (BU)
                 (AG) (BU) (AG) (BU) (AG) (BU) (AU) (AG) (BU) (BG)
                 (AG) (AG) (BU) (AU) (BU) (BG) (AG) (AG) (AU) (BU)
                 (BG) (AG) (BG) (BU) (AG) (AU) (BU) (AG) (AU) (AU)
                 (BG) (AU) (BG) (BG) (AG) (BU) (AG) (BU) (AU) (BU)
                 (BU) (AG) (AG) (BU) (AG) (BG) (AG) (BU) (BU) (AU)
                 (AG) (BG) (BU) (AG) (BU) (AU) (AG) (BU) (AG) (BU)
                 (AG) (BG) (BU) (AG) (BU) (AG) (BU) (AU) (AG) (BG)
                 (BU) (AG) (AG) (BU) (AG) (BU) (BU) (AG) (BU) (BU)
                 (AG) (AG) (BU) (AG) (BG) (BU) (AU) (BU) (AG) (AU)
                 (BG) (AG) (BG) (BU) (BU) (AG) (BU) (AU) (AG) (BU)
                 (BG) (AU) (AG) (BG) (AU) (AG) (BU) (BG) (AG) (AU)
                 (BG) (BG) (AU) (AU) (BG) (AU) (BU) (AG) (BU) (BU)
                 (AG) (AG) (BU) (AG) (BU) (BU) (AG) (AU) (AG) (BU)
                 (BG) (BU) (AG) (BU) (AG) (AU) (AG) (BU) (BG) (AG)
                 (BU) (BU) (AG) (AG) (AU) (BU) (BG) (BU) (AG) (AU)
                 (AG) (BU) (BU) (AG) (BU) (BG) (BU) (AG) (AG) (AU)
                 (BG) (BG) (BU) (AG) (AU) (BU) (AU) (BG) (AG) (AU)
                 (BG) (BU) (AU) (BG) (BG) (AU) (BG) (AG) (BU) (BU)
                 (AG) (AG) (BU) (AG) (BU) (AU) (BU) (AG) (AU) (AG)
                 (BG) (BU) (AG) (BG) (AG) (AG) (BU) (AU) (BU) (AG)
                 (BU) (AG) (BU) (BU) (AG) (AG) (BU) (AG) (BU) (BU)
                 (AG) (AG) (BU)
 The electronic state of the initial guess is 1-AG.
 Requested convergence on RMS density matrix=1.00D-08 within 128 cycles.
 Requested convergence on MAX density matrix=1.00D-06.
 Requested convergence on             energy=1.00D-06.
 No special actions if energy rises.
 Integral accuracy reduced to 1.0D-05 until final iterations.
 Initial convergence to 1.0D-05 achieved.  Increase integral accuracy.
 SCF Done:  E(RB3LYP) =  -846.272218070     A.U. after   14 cycles
            NFock= 14  Conv=0.71D-08     -V/T= 2.0104

 **********************************************************************

            Population analysis using the SCF Density.

 **********************************************************************

 Orbital symmetries:
       Occupied  (BU) (AG) (BU) (AG) (BU) (AG) (AG) (BU) (AG) (BU)
                 (BU) (AG) (BU) (AG) (AG) (BU) (BU) (AG) (AG) (BU)
                 (AG) (BU) (AG) (BU) (AG) (BU) (AG) (BU) (BU) (AG)
                 (AG) (BU) (BU) (AG) (AG) (BU) (AG) (BU) (AG) (BU)
                 (AG) (BU) (AG) (BU) (BU) (AG) (AG) (AG) (BU) (BU)
                 (BU) (AG) (BU) (AU) (AG) (BU) (BG) (BU) (AG) (AG)
                 (AU) (BU) (BU) (AG) (BG) (AG) (AU) (BG) (BG) (AU)
                 (AU) (BG) (BG)
       Virtual   (AU) (AU) (BG) (BG) (AU) (AU) (BG) (AG) (BU) (BU)
                 (AG) (AG) (AU) (BU) (BU) (AG) (AG) (BG) (BU) (BU)
                 (AG) (AG) (AU) (BU) (BG) (AG) (AG) (BU) (BU) (AG)
                 (BU) (BU) (AG) (BU) (AG) (AG) (AG) (BU) (BU) (AG)
                 (BU) (AG) (BU) (BU) (AG) (BU) (AG) (BU) (AG) (BU)
                 (AG) (BU) (BU) (AG) (BU) (AU) (AG) (AG) (BG) (AG)
                 (BU) (AU) (BU) (AG) (BG) (AG) (BU) (AU) (AG) (BU)
                 (BG) (BG) (BU) (AG) (AU) (AU) (AG) (BU) (AU) (AG)
                 (BG) (BG) (AU) (BG) (AU) (BU) (AG) (AG) (BU) (BU)
                 (BG) (BU) (AG) (AG) (AU) (AG) (BG) (BU) (AG) (BU)
                 (AU) (AG) (BU) (BU) (AG) (BU) (BU) (BG) (AG) (AG)
                 (AG) (BU) (BU) (AG) (BU) (AU) (AG) (BG) (BU) (AG)
                 (BU) (AG) (BU) (AG) (AG) (BU) (BU) (AG) (BU) (BU)
                 (AG) (AG) (BU) (AG) (BU) (AG) (BU) (BG) (AU) (AG)
                 (AU) (BG) (BU) (BG) (AG) (BU) (BU) (AG) (BU) (AU)
                 (AG) (BG) (AG) (AU) (BU) (BG) (AG) (AU) (BG) (AU)
                 (BG) (BU) (BG) (AU) (AU) (BG) (AU) (AG) (BU) (BU)
                 (AG) (AG) (BU) (AG) (BU) (AU) (BU) (AG) (AG) (BG)
                 (BU) (BU) (AU) (AG) (BU) (AG) (BG) (AG) (BU) (AG)
                 (BU) (BU) (AG) (AU) (AG) (BU) (BG) (BU) (AG) (AU)
                 (BU) (AG) (BU) (AG) (BU) (BG) (AG) (BU) (AG) (AU)
                 (BG) (BG) (BU) (AU) (AG) (BU) (AU) (BG) (AU) (AG)
                 (BG) (BU) (AU) (BG) (BG) (AU) (BG) (AG) (BU) (BU)
                 (AG) (AG) (BU) (AG) (BU) (AU) (AU) (BU) (AG) (AG)
                 (BG) (BU) (BG) (AG) (AG) (AU) (AG) (BU) (BU) (AG)
                 (BU) (AG) (BU) (BU) (AG) (AG) (BU) (AG) (BU) (BU)
                 (AG) (AG) (BU)
 The electronic state is 1-AG.
 Alpha  occ. eigenvalues --  -10.20164 -10.20162 -10.20097 -10.20090 -10.19601
 Alpha  occ. eigenvalues --  -10.19595 -10.19533 -10.19532 -10.19242 -10.19241
 Alpha  occ. eigenvalues --  -10.19191 -10.19178 -10.18979 -10.18979 -10.18945
 Alpha  occ. eigenvalues --  -10.18945 -10.18933 -10.18931 -10.18872 -10.18872
 Alpha  occ. eigenvalues --  -10.18867 -10.18867  -0.88949  -0.87401  -0.84537
 Alpha  occ. eigenvalues --   -0.82116  -0.79309  -0.78076  -0.76018  -0.75330
 Alpha  occ. eigenvalues --   -0.72955  -0.71304  -0.69943  -0.65027  -0.63795
 Alpha  occ. eigenvalues --   -0.61757  -0.61189  -0.60266  -0.58116  -0.55895
 Alpha  occ. eigenvalues --   -0.53606  -0.51628  -0.51513  -0.50428  -0.48738
 Alpha  occ. eigenvalues --   -0.47755  -0.46610  -0.44578  -0.44187  -0.43817
 Alpha  occ. eigenvalues --   -0.43120  -0.42642  -0.42247  -0.41777  -0.41091
 Alpha  occ. eigenvalues --   -0.40324  -0.39853  -0.38922  -0.38572  -0.37245
 Alpha  occ. eigenvalues --   -0.36444  -0.35373  -0.34485  -0.33692  -0.33660
 Alpha  occ. eigenvalues --   -0.32960  -0.30808  -0.30230  -0.27594  -0.26623
 Alpha  occ. eigenvalues --   -0.23679  -0.22183  -0.20013
 Alpha virt. eigenvalues --   -0.06934  -0.05383  -0.03144  -0.00386   0.00315
 Alpha virt. eigenvalues --    0.03625   0.05147   0.06248   0.06325   0.06563
 Alpha virt. eigenvalues --    0.08191   0.08568   0.09229   0.10659   0.10829
 Alpha virt. eigenvalues --    0.12000   0.12976   0.13055   0.14131   0.15137
 Alpha virt. eigenvalues --    0.16482   0.18755   0.19274   0.21496   0.22825
 Alpha virt. eigenvalues --    0.22929   0.24182   0.24456   0.26083   0.26274
 Alpha virt. eigenvalues --    0.27179   0.27456   0.27894   0.28481   0.29203
 Alpha virt. eigenvalues --    0.30342   0.31215   0.31477   0.32329   0.33419
 Alpha virt. eigenvalues --    0.33637   0.33861   0.34616   0.36438   0.36555
 Alpha virt. eigenvalues --    0.37512   0.37998   0.38121   0.39786   0.41317
 Alpha virt. eigenvalues --    0.41564   0.41684   0.43128   0.43545   0.44520
 Alpha virt. eigenvalues --    0.44522   0.45270   0.45533   0.45802   0.47400
 Alpha virt. eigenvalues --    0.47430   0.47865   0.47936   0.48012   0.48192
 Alpha virt. eigenvalues --    0.49514   0.49860   0.49961   0.50148   0.50549
 Alpha virt. eigenvalues --    0.51062   0.52371   0.53723   0.54020   0.55060
 Alpha virt. eigenvalues --    0.55392   0.56208   0.57153   0.57371   0.57658
 Alpha virt. eigenvalues --    0.58210   0.60426   0.60488   0.62030   0.64385
 Alpha virt. eigenvalues --    0.65318   0.65549   0.66432   0.66896   0.67712
 Alpha virt. eigenvalues --    0.67867   0.68010   0.68144   0.69082   0.69190
 Alpha virt. eigenvalues --    0.69829   0.70083   0.70824   0.71416   0.71533
 Alpha virt. eigenvalues --    0.72134   0.72870   0.73478   0.74456   0.74890
 Alpha virt. eigenvalues --    0.75238   0.75441   0.75938   0.77351   0.77868
 Alpha virt. eigenvalues --    0.78796   0.79587   0.80922   0.81401   0.82055
 Alpha virt. eigenvalues --    0.82237   0.82455   0.82913   0.83170   0.84477
 Alpha virt. eigenvalues --    0.85942   0.86985   0.89002   0.90189   0.93817
 Alpha virt. eigenvalues --    0.96278   0.97820   0.98829   1.00681   1.08098
 Alpha virt. eigenvalues --    1.09629   1.11415   1.11601   1.14280   1.18480
 Alpha virt. eigenvalues --    1.19923   1.20645   1.21152   1.21900   1.22463
 Alpha virt. eigenvalues --    1.24144   1.24341   1.24496   1.25811   1.27331
 Alpha virt. eigenvalues --    1.28070   1.29400   1.30376   1.32007   1.33964
 Alpha virt. eigenvalues --    1.35800   1.36972   1.38766   1.38956   1.39529
 Alpha virt. eigenvalues --    1.40669   1.41000   1.41408   1.44545   1.45533
 Alpha virt. eigenvalues --    1.46145   1.46600   1.48441   1.48499   1.48777
 Alpha virt. eigenvalues --    1.49667   1.50014   1.50990   1.52391   1.52976
 Alpha virt. eigenvalues --    1.55560   1.67953   1.69844   1.70641   1.72176
 Alpha virt. eigenvalues --    1.74268   1.74548   1.75302   1.76642   1.77679
 Alpha virt. eigenvalues --    1.79198   1.80908   1.83263   1.83419   1.84008
 Alpha virt. eigenvalues --    1.84450   1.86683   1.86959   1.86997   1.89528
 Alpha virt. eigenvalues --    1.90008   1.90566   1.94406   1.95460   1.95485
 Alpha virt. eigenvalues --    1.98227   2.00609   2.02525   2.04509   2.04572
 Alpha virt. eigenvalues --    2.07712   2.08167   2.09109   2.09633   2.11078
 Alpha virt. eigenvalues --    2.13124   2.15767   2.15911   2.17456   2.17765
 Alpha virt. eigenvalues --    2.19020   2.19411   2.20629   2.21615   2.22557
 Alpha virt. eigenvalues --    2.24284   2.26388   2.28015   2.28959   2.29131
 Alpha virt. eigenvalues --    2.29757   2.31318   2.33334   2.35034   2.35162
 Alpha virt. eigenvalues --    2.36363   2.38503   2.40246   2.46211   2.48494
 Alpha virt. eigenvalues --    2.48629   2.55773   2.56388   2.56613   2.58614
 Alpha virt. eigenvalues --    2.58752   2.60797   2.60936   2.62099   2.63629
 Alpha virt. eigenvalues --    2.64099   2.66025   2.67229   2.67711   2.68701
 Alpha virt. eigenvalues --    2.70532   2.70685   2.71674   2.77045   2.78596
 Alpha virt. eigenvalues --    2.81719   2.82315   2.89027   2.91989   2.94616
 Alpha virt. eigenvalues --    2.98981   3.03038   3.05338   3.27959   3.33952
 Alpha virt. eigenvalues --    3.38787   3.48483   3.54068
          Condensed to atoms (all electrons):
               1          2          3          4          5          6
     1  C    5.235087   0.168375   0.142984  -0.155952   0.150633   0.194214
     2  C    0.168375   5.207892   0.243737   0.122926  -0.170442   0.149985
     3  C    0.142984   0.243737   5.441452   0.259062   0.019795  -0.173239
     4  C   -0.155952   0.122926   0.259062   5.562573   0.076474   0.045762
     5  C    0.150633  -0.170442   0.019795   0.076474   5.487654   0.227698
     6  C    0.194214   0.149985  -0.173239   0.045762   0.227698   5.460121
     7  C    0.022184  -0.002352   0.027719   0.025554   0.153621  -0.162062
     8  C   -0.001457   0.000215  -0.003881  -0.138870   0.156387   0.019390
     9  C   -0.000032   0.000345   0.022246   0.002036  -0.173431  -0.001009
    10  C   -0.000001   0.000002  -0.000306   0.026088  -0.001335   0.000053
    11  C   -0.000000   0.000004   0.000038  -0.003002  -0.000052  -0.000000
    12  C    0.000007  -0.000097   0.000248   0.023324   0.000430  -0.000003
    13  C   -0.000000  -0.000001  -0.000048  -0.000716   0.000010   0.000000
    14  C   -0.000000   0.000000   0.000001   0.000005  -0.000000  -0.000000
    15  C    0.000000  -0.000000  -0.000000  -0.000004   0.000000   0.000000
    16  C   -0.000000   0.000000   0.000000  -0.000000   0.000000  -0.000000
    17  C    0.000000  -0.000000  -0.000000   0.000000   0.000000  -0.000000
    18  C   -0.000000   0.000000   0.000000   0.000000  -0.000000   0.000000
    19  C   -0.000000   0.000000   0.000000   0.000000  -0.000000   0.000000
    20  C    0.000000   0.000000   0.000000   0.000123  -0.000004  -0.000000
    21  C    0.000016   0.000293  -0.029358  -0.151297   0.022921  -0.000265
    22  C   -0.004238   0.022136  -0.146798   0.204109   0.006960   0.026626
    23  H    0.436363  -0.084290   0.015160  -0.001210   0.015733  -0.078928
    24  H   -0.085869   0.436047  -0.075133   0.015756  -0.001650   0.015543
    25  H    0.015678  -0.081486   0.417467  -0.047887   0.019032  -0.001920
    26  H   -0.083257   0.016218  -0.002262   0.017034  -0.079988   0.440676
    27  H    0.001028  -0.000068  -0.000302   0.015958  -0.088218  -0.020167
    28  H    0.000013  -0.000002   0.000056  -0.001661   0.016733  -0.000567
    29  H    0.000000  -0.000000   0.000012  -0.000216  -0.000065  -0.000002
    30  H    0.000000  -0.000000   0.000008  -0.000056   0.000000   0.000000
    31  H    0.000000  -0.000000  -0.000000   0.000000   0.000000  -0.000000
    32  H    0.000000  -0.000000   0.000000  -0.000000  -0.000000   0.000000
    33  H   -0.000000   0.000000   0.000000  -0.000000  -0.000000   0.000000
    34  H    0.000000   0.000000   0.000000   0.000000  -0.000000  -0.000000
    35  H   -0.000000  -0.000000  -0.000000  -0.000001   0.000000   0.000000
    36  H   -0.000048   0.001027   0.011435  -0.038457  -0.001134   0.000034
               7          8          9         10         11         12
     1  C    0.022184  -0.001457  -0.000032  -0.000001  -0.000000   0.000007
     2  C   -0.002352   0.000215   0.000345   0.000002   0.000004  -0.000097
     3  C    0.027719  -0.003881   0.022246  -0.000306   0.000038   0.000248
     4  C    0.025554  -0.138870   0.002036   0.026088  -0.003002   0.023324
     5  C    0.153621   0.156387  -0.173431  -0.001335  -0.000052   0.000430
     6  C   -0.162062   0.019390  -0.001009   0.000053  -0.000000  -0.000003
     7  C    5.516218   0.191443   0.155420   0.019870  -0.001312   0.000099
     8  C    0.191443   5.522846   0.151574  -0.154889   0.021319  -0.001679
     9  C    0.155420   0.151574   5.473787   0.256314   0.128395  -0.163710
    10  C    0.019870  -0.154889   0.256314   5.726937   0.250139   0.014561
    11  C   -0.001312   0.021319   0.128395   0.250139   5.564025   0.043476
    12  C    0.000099  -0.001679  -0.163710   0.014561   0.043476   5.473787
    13  C   -0.000004   0.000078  -0.001679   0.026859   0.026991   0.151574
    14  C    0.000000  -0.000004   0.000099  -0.003473  -0.136878   0.155420
    15  C   -0.000000   0.000010   0.000430   0.022921   0.006960  -0.173431
    16  C   -0.000000   0.000000  -0.000003  -0.000265   0.026626  -0.001009
    17  C   -0.000000  -0.000000   0.000007   0.000016  -0.004238  -0.000032
    18  C    0.000000  -0.000001  -0.000097   0.000293   0.022136   0.000345
    19  C    0.000001  -0.000048   0.000248  -0.029358  -0.146798   0.022246
    20  C    0.000005  -0.000716   0.023324  -0.151297   0.204109   0.002036
    21  C   -0.003473   0.026859   0.014561  -0.148965   0.026615   0.256314
    22  C   -0.136878   0.026991   0.043476   0.026615  -0.133325   0.128395
    23  H   -0.000541   0.000010  -0.000000   0.000000   0.000000  -0.000000
    24  H    0.000030  -0.000001   0.000008  -0.000000   0.000000  -0.000001
    25  H   -0.000245  -0.000034  -0.001542   0.000026  -0.000020   0.001699
    26  H   -0.022544   0.001148  -0.000083  -0.000001   0.000000  -0.000000
    27  H    0.443097  -0.078956   0.016809  -0.000616   0.000011  -0.000002
    28  H   -0.080384   0.441087  -0.085302  -0.022382   0.001048  -0.000008
    29  H    0.001084  -0.020460  -0.084943   0.420982  -0.055242   0.020493
    30  H   -0.000000   0.000001  -0.000008  -0.000393   0.016604  -0.085302
    31  H    0.000000   0.000000  -0.000002   0.000060  -0.001588   0.016809
    32  H   -0.000000   0.000000  -0.000000   0.000009  -0.000160  -0.000083
    33  H    0.000000   0.000000  -0.000000  -0.000000   0.000054  -0.000000
    34  H    0.000000  -0.000000  -0.000001  -0.000001  -0.000299   0.000008
    35  H   -0.000000  -0.000050   0.001699   0.010767  -0.040762  -0.001542
    36  H   -0.000030  -0.000327   0.020493  -0.002487   0.018107  -0.084943
              13         14         15         16         17         18
     1  C   -0.000000  -0.000000   0.000000  -0.000000   0.000000  -0.000000
     2  C   -0.000001   0.000000  -0.000000   0.000000  -0.000000   0.000000
     3  C   -0.000048   0.000001  -0.000000   0.000000  -0.000000   0.000000
     4  C   -0.000716   0.000005  -0.000004  -0.000000   0.000000   0.000000
     5  C    0.000010  -0.000000   0.000000   0.000000   0.000000  -0.000000
     6  C    0.000000  -0.000000   0.000000  -0.000000  -0.000000   0.000000
     7  C   -0.000004   0.000000  -0.000000  -0.000000  -0.000000   0.000000
     8  C    0.000078  -0.000004   0.000010   0.000000  -0.000000  -0.000001
     9  C   -0.001679   0.000099   0.000430  -0.000003   0.000007  -0.000097
    10  C    0.026859  -0.003473   0.022921  -0.000265   0.000016   0.000293
    11  C    0.026991  -0.136878   0.006960   0.026626  -0.004238   0.022136
    12  C    0.151574   0.155420  -0.173431  -0.001009  -0.000032   0.000345
    13  C    5.522846   0.191443   0.156387   0.019390  -0.001457   0.000215
    14  C    0.191443   5.516218   0.153621  -0.162062   0.022184  -0.002352
    15  C    0.156387   0.153621   5.487654   0.227698   0.150633  -0.170442
    16  C    0.019390  -0.162062   0.227698   5.460121   0.194214   0.149985
    17  C   -0.001457   0.022184   0.150633   0.194214   5.235087   0.168375
    18  C    0.000215  -0.002352  -0.170442   0.149985   0.168375   5.207892
    19  C   -0.003881   0.027719   0.019795  -0.173239   0.142984   0.243737
    20  C   -0.138870   0.025554   0.076474   0.045762  -0.155952   0.122926
    21  C   -0.154889   0.019870  -0.001335   0.000053  -0.000001   0.000002
    22  C    0.021319  -0.001312  -0.000052  -0.000000  -0.000000   0.000004
    23  H    0.000000   0.000000  -0.000000   0.000000  -0.000000   0.000000
    24  H   -0.000000   0.000000  -0.000000  -0.000000   0.000000   0.000000
    25  H   -0.000050  -0.000000   0.000000   0.000000  -0.000000  -0.000000
    26  H    0.000000  -0.000000  -0.000000   0.000000   0.000000  -0.000000
    27  H    0.000000   0.000000   0.000000  -0.000000   0.000000  -0.000000
    28  H    0.000001  -0.000000   0.000000   0.000000   0.000000  -0.000000
    29  H   -0.000327  -0.000030  -0.001134   0.000034  -0.000048   0.001027
    30  H    0.441087  -0.080384   0.016733  -0.000567   0.000013  -0.000002
    31  H   -0.078956   0.443097  -0.088218  -0.020167   0.001028  -0.000068
    32  H    0.001148  -0.022544  -0.079988   0.440676  -0.083257   0.016218
    33  H    0.000010  -0.000541   0.015733  -0.078928   0.436363  -0.084290
    34  H   -0.000001   0.000030  -0.001650   0.015543  -0.085869   0.436047
    35  H   -0.000034  -0.000245   0.019032  -0.001920   0.015678  -0.081486
    36  H   -0.020460   0.001084  -0.000065  -0.000002   0.000000  -0.000000
              19         20         21         22         23         24
     1  C   -0.000000   0.000000   0.000016  -0.004238   0.436363  -0.085869
     2  C    0.000000   0.000000   0.000293   0.022136  -0.084290   0.436047
     3  C    0.000000   0.000000  -0.029358  -0.146798   0.015160  -0.075133
     4  C    0.000000   0.000123  -0.151297   0.204109  -0.001210   0.015756
     5  C   -0.000000  -0.000004   0.022921   0.006960   0.015733  -0.001650
     6  C    0.000000  -0.000000  -0.000265   0.026626  -0.078928   0.015543
     7  C    0.000001   0.000005  -0.003473  -0.136878  -0.000541   0.000030
     8  C   -0.000048  -0.000716   0.026859   0.026991   0.000010  -0.000001
     9  C    0.000248   0.023324   0.014561   0.043476  -0.000000   0.000008
    10  C   -0.029358  -0.151297  -0.148965   0.026615   0.000000  -0.000000
    11  C   -0.146798   0.204109   0.026615  -0.133325   0.000000   0.000000
    12  C    0.022246   0.002036   0.256314   0.128395  -0.000000  -0.000001
    13  C   -0.003881  -0.138870  -0.154889   0.021319   0.000000  -0.000000
    14  C    0.027719   0.025554   0.019870  -0.001312   0.000000   0.000000
    15  C    0.019795   0.076474  -0.001335  -0.000052  -0.000000  -0.000000
    16  C   -0.173239   0.045762   0.000053  -0.000000   0.000000  -0.000000
    17  C    0.142984  -0.155952  -0.000001  -0.000000  -0.000000   0.000000
    18  C    0.243737   0.122926   0.000002   0.000004   0.000000   0.000000
    19  C    5.441452   0.259062  -0.000306   0.000038   0.000000   0.000000
    20  C    0.259062   5.562573   0.026088  -0.003002  -0.000000   0.000000
    21  C   -0.000306   0.026088   5.726937   0.250139  -0.000000  -0.000001
    22  C    0.000038  -0.003002   0.250139   5.564025   0.000054  -0.000299
    23  H    0.000000  -0.000000  -0.000000   0.000054   0.671902  -0.012357
    24  H    0.000000   0.000000  -0.000001  -0.000299  -0.012357   0.671448
    25  H   -0.000000  -0.000001   0.010767  -0.040762  -0.000349  -0.013339
    26  H    0.000000  -0.000000   0.000009  -0.000160  -0.012557  -0.000339
    27  H   -0.000000   0.000000   0.000060  -0.001588  -0.000019  -0.000001
    28  H    0.000008  -0.000056  -0.000393   0.016604  -0.000000   0.000000
    29  H    0.011435  -0.038457  -0.002487   0.018107  -0.000000   0.000000
    30  H    0.000056  -0.001661  -0.022382   0.001048   0.000000   0.000000
    31  H   -0.000302   0.015958  -0.000616   0.000011  -0.000000   0.000000
    32  H   -0.002262   0.017034  -0.000001   0.000000  -0.000000  -0.000000
    33  H    0.015160  -0.001210   0.000000   0.000000  -0.000000   0.000000
    34  H   -0.075133   0.015756  -0.000000   0.000000   0.000000   0.000000
    35  H    0.417467  -0.047887   0.000026  -0.000020   0.000000   0.000000
    36  H    0.000012  -0.000216   0.420982  -0.055242  -0.000000   0.000032
              25         26         27         28         29         30
     1  C    0.015678  -0.083257   0.001028   0.000013   0.000000   0.000000
     2  C   -0.081486   0.016218  -0.000068  -0.000002  -0.000000  -0.000000
     3  C    0.417467  -0.002262  -0.000302   0.000056   0.000012   0.000008
     4  C   -0.047887   0.017034   0.015958  -0.001661  -0.000216  -0.000056
     5  C    0.019032  -0.079988  -0.088218   0.016733  -0.000065   0.000000
     6  C   -0.001920   0.440676  -0.020167  -0.000567  -0.000002   0.000000
     7  C   -0.000245  -0.022544   0.443097  -0.080384   0.001084  -0.000000
     8  C   -0.000034   0.001148  -0.078956   0.441087  -0.020460   0.000001
     9  C   -0.001542  -0.000083   0.016809  -0.085302  -0.084943  -0.000008
    10  C    0.000026  -0.000001  -0.000616  -0.022382   0.420982  -0.000393
    11  C   -0.000020   0.000000   0.000011   0.001048  -0.055242   0.016604
    12  C    0.001699  -0.000000  -0.000002  -0.000008   0.020493  -0.085302
    13  C   -0.000050   0.000000   0.000000   0.000001  -0.000327   0.441087
    14  C   -0.000000  -0.000000   0.000000  -0.000000  -0.000030  -0.080384
    15  C    0.000000  -0.000000   0.000000   0.000000  -0.001134   0.016733
    16  C    0.000000   0.000000  -0.000000   0.000000   0.000034  -0.000567
    17  C   -0.000000   0.000000   0.000000   0.000000  -0.000048   0.000013
    18  C   -0.000000  -0.000000  -0.000000  -0.000000   0.001027  -0.000002
    19  C   -0.000000   0.000000  -0.000000   0.000008   0.011435   0.000056
    20  C   -0.000001  -0.000000   0.000000  -0.000056  -0.038457  -0.001661
    21  C    0.010767   0.000009   0.000060  -0.000393  -0.002487  -0.022382
    22  C   -0.040762  -0.000160  -0.001588   0.016604   0.018107   0.001048
    23  H   -0.000349  -0.012557  -0.000019  -0.000000  -0.000000   0.000000
    24  H   -0.013339  -0.000339  -0.000001   0.000000   0.000000   0.000000
    25  H    0.677152   0.000028   0.000010   0.000000   0.000001  -0.000018
    26  H    0.000028   0.678631   0.006602  -0.000020  -0.000000   0.000000
    27  H    0.000010   0.006602   0.680715  -0.013133  -0.000018   0.000000
    28  H    0.000000  -0.000020  -0.013133   0.680039   0.008506   0.000000
    29  H    0.000001  -0.000000  -0.000018   0.008506   0.688574   0.000011
    30  H   -0.000018   0.000000   0.000000   0.000000   0.000011   0.680039
    31  H    0.000000   0.000000   0.000000   0.000000   0.000000  -0.013133
    32  H    0.000000   0.000000   0.000000   0.000000   0.000001  -0.000020
    33  H    0.000000  -0.000000  -0.000000   0.000000  -0.000000  -0.000000
    34  H    0.000000  -0.000000   0.000000   0.000000   0.000032   0.000000
    35  H   -0.000000   0.000000   0.000000  -0.000018   0.001220   0.000000
    36  H    0.001220   0.000001   0.000000   0.000011   0.000017   0.008506
              31         32         33         34         35         36
     1  C    0.000000   0.000000  -0.000000   0.000000  -0.000000  -0.000048
     2  C   -0.000000  -0.000000   0.000000   0.000000  -0.000000   0.001027
     3  C   -0.000000   0.000000   0.000000   0.000000  -0.000000   0.011435
     4  C    0.000000  -0.000000  -0.000000   0.000000  -0.000001  -0.038457
     5  C    0.000000  -0.000000  -0.000000  -0.000000   0.000000  -0.001134
     6  C   -0.000000   0.000000   0.000000  -0.000000   0.000000   0.000034
     7  C    0.000000  -0.000000   0.000000   0.000000  -0.000000  -0.000030
     8  C    0.000000   0.000000   0.000000  -0.000000  -0.000050  -0.000327
     9  C   -0.000002  -0.000000  -0.000000  -0.000001   0.001699   0.020493
    10  C    0.000060   0.000009  -0.000000  -0.000001   0.010767  -0.002487
    11  C   -0.001588  -0.000160   0.000054  -0.000299  -0.040762   0.018107
    12  C    0.016809  -0.000083  -0.000000   0.000008  -0.001542  -0.084943
    13  C   -0.078956   0.001148   0.000010  -0.000001  -0.000034  -0.020460
    14  C    0.443097  -0.022544  -0.000541   0.000030  -0.000245   0.001084
    15  C   -0.088218  -0.079988   0.015733  -0.001650   0.019032  -0.000065
    16  C   -0.020167   0.440676  -0.078928   0.015543  -0.001920  -0.000002
    17  C    0.001028  -0.083257   0.436363  -0.085869   0.015678   0.000000
    18  C   -0.000068   0.016218  -0.084290   0.436047  -0.081486  -0.000000
    19  C   -0.000302  -0.002262   0.015160  -0.075133   0.417467   0.000012
    20  C    0.015958   0.017034  -0.001210   0.015756  -0.047887  -0.000216
    21  C   -0.000616  -0.000001   0.000000  -0.000000   0.000026   0.420982
    22  C    0.000011   0.000000   0.000000   0.000000  -0.000020  -0.055242
    23  H   -0.000000  -0.000000  -0.000000   0.000000   0.000000  -0.000000
    24  H    0.000000  -0.000000   0.000000   0.000000   0.000000   0.000032
    25  H    0.000000   0.000000   0.000000   0.000000  -0.000000   0.001220
    26  H    0.000000   0.000000  -0.000000  -0.000000   0.000000   0.000001
    27  H    0.000000   0.000000  -0.000000   0.000000   0.000000   0.000000
    28  H    0.000000   0.000000   0.000000   0.000000  -0.000018   0.000011
    29  H    0.000000   0.000001  -0.000000   0.000032   0.001220   0.000017
    30  H   -0.013133  -0.000020  -0.000000   0.000000   0.000000   0.008506
    31  H    0.680715   0.006602  -0.000019  -0.000001   0.000010  -0.000018
    32  H    0.006602   0.678631  -0.012557  -0.000339   0.000028  -0.000000
    33  H   -0.000019  -0.012557   0.671902  -0.012357  -0.000349  -0.000000
    34  H   -0.000001  -0.000339  -0.012357   0.671448  -0.013339   0.000000
    35  H    0.000010   0.000028  -0.000349  -0.013339   0.677152   0.000001
    36  H   -0.000018  -0.000000  -0.000000   0.000000   0.000001   0.688574
 Mulliken charges:
               1
     1  C   -0.035727
     2  C   -0.030465
     3  C   -0.170093
     4  C    0.142541
     5  C    0.162239
     6  C   -0.141940
     7  C   -0.146521
     8  C   -0.157986
     9  C    0.200571
    10  C   -0.286742
    11  C    0.167018
    12  C    0.200571
    13  C   -0.157986
    14  C   -0.146521
    15  C    0.162239
    16  C   -0.141940
    17  C   -0.035727
    18  C   -0.030465
    19  C   -0.170093
    20  C    0.142541
    21  C   -0.286742
    22  C    0.167018
    23  H    0.051030
    24  H    0.050126
    25  H    0.044574
    26  H    0.040865
    27  H    0.038796
    28  H    0.039820
    29  H    0.031893
    30  H    0.039820
    31  H    0.038796
    32  H    0.040865
    33  H    0.051030
    34  H    0.050126
    35  H    0.044574
    36  H    0.031893
 Sum of Mulliken charges =  -0.00000
 Mulliken charges with hydrogens summed into heavy atoms:
               1
     1  C    0.015303
     2  C    0.019661
     3  C   -0.125519
     4  C    0.142541
     5  C    0.162239
     6  C   -0.101075
     7  C   -0.107725
     8  C   -0.118166
     9  C    0.200571
    10  C   -0.254849
    11  C    0.167018
    12  C    0.200571
    13  C   -0.118166
    14  C   -0.107725
    15  C    0.162239
    16  C   -0.101075
    17  C    0.015303
    18  C    0.019661
    19  C   -0.125519
    20  C    0.142541
    21  C   -0.254849
    22  C    0.167018
 Electronic spatial extent (au):  <R**2>=           8031.5146
 Charge=             -0.0000 electrons
 Dipole moment (field-independent basis, Debye):
    X=             -0.0000    Y=              0.0000    Z=              0.0000  Tot=              0.0000
 Quadrupole moment (field-independent basis, Debye-Ang):
   XX=           -111.8190   YY=           -109.7123   ZZ=           -134.8655
   XY=             -0.4361   XZ=             -0.0000   YZ=              0.0000
 Traceless Quadrupole moment (field-independent basis, Debye-Ang):
   XX=              6.9799   YY=              9.0866   ZZ=            -16.0665
   XY=             -0.4361   XZ=             -0.0000   YZ=              0.0000
 Octapole moment (field-independent basis, Debye-Ang**2):
  XXX=              0.0000  YYY=              0.0000  ZZZ=              0.0000  XYY=             -0.0000
  XXY=              0.0000  XXZ=              0.0000  XZZ=              0.0000  YZZ=              0.0000
  YYZ=              0.0000  XYZ=             -0.0000
 Hexadecapole moment (field-independent basis, Debye-Ang**3):
 XXXX=          -1540.8319 YYYY=          -8577.5154 ZZZZ=           -148.8374 XXXY=             98.9047
 XXXZ=              0.0000 YYYX=             87.2298 YYYZ=              0.0000 ZZZX=              0.0000
 ZZZY=              0.0000 XXYY=          -1690.2599 XXZZ=           -331.6347 YYZZ=          -1767.8028
 XXYZ=              0.0000 YYXZ=              0.0000 ZZXY=             43.2290
 N-N= 1.529183744288D+03 E-N=-5.016087296210D+03  KE= 8.375211284052D+02
 Symmetry AG   KE= 4.067238553860D+02
 Symmetry BG   KE= 1.315410340242D+01
 Symmetry AU   KE= 1.041683191099D+01
 Symmetry BU   KE= 4.072263377058D+02
   4 Symmetry operations used in ECPInt.
 ECPInt:  NShTT=   12880 NPrTT=   51688 LenC2=   11544 LenP2D=   31480.
 LDataN:  DoStor=T MaxTD1= 5 Len=  102
 Calling FoFJK, ICntrl=      2127 FMM=F ISym2X=1 I1Cent= 0 IOpClX= 0 NMat=1 NMatS=1 NMatT=0.
 ***** Axes restored to original set *****
 -------------------------------------------------------------------
 Center     Atomic                   Forces (Hartrees/Bohr)
 Number     Number              X              Y              Z
 -------------------------------------------------------------------
      1        6           0.000576211   -0.017819411    0.002372494
      2        6           0.018574121    0.008104692   -0.003029454
      3        6          -0.004970486    0.000192108    0.000488447
      4        6          -0.014867966    0.014115729   -0.000387147
      5        6          -0.014847720    0.007966739    0.000450028
      6        6          -0.014278751    0.011900663   -0.000145824
      7        6           0.048264530   -0.021831626   -0.002017752
      8        6          -0.042483883   -0.025125334    0.007828317
      9        6           0.028642573    0.001953445   -0.003232410
     10        6           0.009125264    0.010562614   -0.002386555
     11        6          -0.011198422   -0.029027903    0.005121533
     12        6          -0.028642573   -0.001953445    0.003232410
     13        6           0.042483883    0.025125334   -0.007828317
     14        6          -0.048264530    0.021831626    0.002017752
     15        6           0.014847720   -0.007966739   -0.000450028
     16        6           0.014278751   -0.011900663    0.000145824
     17        6          -0.000576211    0.017819411   -0.002372494
     18        6          -0.018574121   -0.008104692    0.003029454
     19        6           0.004970486   -0.000192108   -0.000488447
     20        6           0.014867966   -0.014115729    0.000387147
     21        6          -0.009125264   -0.010562614    0.002386555
     22        6           0.011198422    0.029027903   -0.005121533
     23        1          -0.005298028   -0.000931536    0.000675727
     24        1          -0.001581200    0.004682530   -0.000475390
     25        1           0.004705806    0.003052417   -0.000903883
     26        1           0.001544246   -0.005062651    0.000531099
     27        1          -0.003916550   -0.002377053    0.000729980
     28        1           0.004393334   -0.001977218   -0.000185037
     29        1           0.001174652   -0.003305195    0.000329495
     30        1          -0.004393334    0.001977218    0.000185037
     31        1           0.003916550    0.002377053   -0.000729980
     32        1          -0.001544246    0.005062651   -0.000531099
     33        1           0.005298028    0.000931536   -0.000675727
     34        1           0.001581200   -0.004682530    0.000475390
     35        1          -0.004705806   -0.003052417    0.000903883
     36        1          -0.001174652    0.003305195   -0.000329495
 -------------------------------------------------------------------
 Cartesian Forces:  Max     0.048264530 RMS     0.013142597

 GradGradGradGradGradGradGradGradGradGradGradGradGradGradGradGradGradGrad
 Berny optimization.
 FormGI is forming the generalized inverse of G from B-inverse, IUseBI=4.
 Internal  Forces:  Max     0.034924500 RMS     0.006657586
 Search for a local minimum.
 Step number   1 out of a maximum of  216
 All quantities printed in internal units (Hartrees-Bohrs-Radians)
 Mixed Optimization -- RFO/linear search
 Second derivative matrix not updated -- first step.
 ITU=  0
     Eigenvalues ---    0.01716   0.01735   0.01783   0.01785   0.01808
     Eigenvalues ---    0.01835   0.01925   0.01926   0.01927   0.01939
     Eigenvalues ---    0.01940   0.01974   0.01982   0.01982   0.02001
     Eigenvalues ---    0.02003   0.02006   0.02056   0.02056   0.02100
     Eigenvalues ---    0.02100   0.02135   0.02136   0.02146   0.02146
     Eigenvalues ---    0.02169   0.02169   0.02183   0.02183   0.02196
     Eigenvalues ---    0.02196   0.02236   0.02236   0.16000   0.16000
     Eigenvalues ---    0.16000   0.16000   0.16000   0.16000   0.16000
     Eigenvalues ---    0.16000   0.16000   0.16000   0.16000   0.16000
     Eigenvalues ---    0.16000   0.16000   0.22000   0.22000   0.22377
     Eigenvalues ---    0.22418   0.22689   0.22719   0.23214   0.23924
     Eigenvalues ---    0.24354   0.24385   0.24637   0.24677   0.25000
     Eigenvalues ---    0.25000   0.25000   0.35011   0.35011   0.35029
     Eigenvalues ---    0.35029   0.35053   0.35053   0.35150   0.35150
     Eigenvalues ---    0.35174   0.35174   0.35224   0.35224   0.35276
     Eigenvalues ---    0.35276   0.37114   0.37390   0.37445   0.38586
     Eigenvalues ---    0.39758   0.39956   0.40372   0.40453   0.42228
     Eigenvalues ---    0.43187   0.43250   0.43301   0.43421   0.44138
     Eigenvalues ---    0.44810   0.44819   0.45214   0.45302   0.45395
     Eigenvalues ---    0.45396   0.45912   0.45912   0.46513   0.46513
     Eigenvalues ---    0.47360   0.47361
 RFO step:  Lambda=-2.13865661D-02 EMin= 1.71550242D-02
 Linear search not attempted -- first point.
 Iteration  1 RMS(Cart)=  0.03204361 RMS(Int)=  0.00020139
 Iteration  2 RMS(Cart)=  0.00029105 RMS(Int)=  0.00002467
 Iteration  3 RMS(Cart)=  0.00000005 RMS(Int)=  0.00002467
 ClnCor:  largest displacement from symmetrization is 5.30D-08 for atom    32.
 Variable       Old X    -DE/DX   Delta X   Delta X   Delta X     New X
                                 (Linear)    (Quad)   (Total)
    R1        2.61937   0.01928   0.00000   0.03843   0.03840   2.65777
    R2        2.63053  -0.00388   0.00000  -0.00733  -0.00732   2.62321
    R3        2.05313   0.00539   0.00000   0.01444   0.01444   2.06757
    R4        2.64258  -0.00787   0.00000  -0.01700  -0.01704   2.62553
    R5        2.05393   0.00477   0.00000   0.01280   0.01280   2.06672
    R6        2.68062  -0.00536   0.00000  -0.01261  -0.01262   2.66800
    R7        2.05230   0.00470   0.00000   0.01256   0.01256   2.06486
    R8        2.68037   0.01243   0.00000   0.02774   0.02781   2.70818
    R9        2.72640   0.00731   0.00000   0.01847   0.01851   2.74491
   R10        2.65600   0.00832   0.00000   0.01837   0.01841   2.67442
   R11        2.63862   0.03492   0.00000   0.07150   0.07150   2.71012
   R12        2.05656   0.00388   0.00000   0.01044   0.01044   2.06700
   R13        2.63026  -0.02138   0.00000  -0.04418  -0.04422   2.58604
   R14        2.05589   0.00392   0.00000   0.01055   0.01055   2.06643
   R15        2.64263   0.03030   0.00000   0.06308   0.06304   2.70568
[...]
 196,-0.00004959,-0.00003417,0.00012017,0.00004451,0.00007426,0.0000019
 4,0.00048638,0.00347080,0.00001112,0.00017669,0.00014007,-0.00003471,-
 0.00012804,-0.00083210,0.00000133,0.00000025,0.00000103,0.00000157,-0.
 00000089,0.00000113,-0.00000250,0.00000120,-0.00000009,0.00000206,0.00
 000247,0.00001004,0.00000047,-0.00000040,-0.00001059,-0.00000086,0.000
 00096,0.00000055,0.00000259,0.00000843,0.00003299,-0.00067075,-0.00092
 796,-0.00562937,-0.02622737,-0.04741812,0.03461848,-0.00000980,0.00000
 017,0.00000086,0.00000090,-0.00000146,0.,-0.00001345,-0.00000902,0.000
 00247,0.00002281,0.00001541,-0.00000456,-0.00000764,-0.00000498,0.0000
 0126,0.00000255,0.00000754,-0.00000129,-0.00000502,-0.00001071,0.00000
 177,-0.00004623,0.00002459,-0.00000321,0.00000136,-0.00011633,0.000014
 87,-0.00044818,0.00020739,0.00002862,-0.00003695,-0.00156613,0.0002443
 9,0.00015222,-0.00021576,0.00000445,0.00010273,0.00039952,-0.00006627,
 0.00110564,-0.00230492,-0.00018029,-0.00912163,-0.02788212,0.00513988,
 -0.10833476,-0.10394355,0.02151112,0.01143131,0.01729979,-0.00309489,-
 0.00138514,0.00292298,0.00051532,-0.00070403,0.00074818,-0.00008080,-0
 .00497288,0.00154364,0.00087323,0.00003541,0.00013254,-0.00001961,-0.0
 0001401,-0.00001402,0.00000238,-0.00000155,0.00000025,0.00000019,-0.00
 000295,0.00000170,0.00000019,0.00000157,0.00000162,-0.00000019,-0.0000
 0054,-0.00000142,0.00000035,-0.00000727,-0.00000154,0.00000206,0.00000
 373,0.00000106,-0.00000036,0.00002261,-0.00000954,-0.00000037,-0.00000
 425,0.00001046,0.00002190,-0.00025746,0.00122585,-0.00012300,0.1111771
 6,-0.00001237,0.00000702,0.00000015,-0.00000722,-0.00000673,0.00000151
 ,-0.00001082,-0.00001143,0.00000248,0.00000748,0.00000068,-0.00000099,
 -0.00001395,0.00000214,0.00000088,0.00000744,0.00001228,-0.00000245,0.
 00000679,-0.00001798,0.00000147,-0.00002731,0.00001620,-0.00000550,0.0
 0006850,-0.00001104,-0.00000673,-0.00010668,-0.00000815,0.00002603,0.0
 0037715,-0.00010994,0.00001129,0.00014808,0.00021205,-0.00005645,-0.00
 036584,0.00020090,0.00000900,0.00198385,0.00044956,-0.00076821,0.00070
 628,0.00042369,0.00038283,-0.10425690,-0.27570298,0.04329339,-0.013809
 82,-0.01817178,0.00450336,0.00437930,-0.00216536,0.00085821,0.00056425
 ,0.00051892,-0.00019725,0.00005204,0.00143887,0.00054826,-0.00005604,-
 0.00003281,0.00001310,0.00000359,0.00005075,-0.00000860,-0.00000508,0.
 00000008,0.00000060,-0.00000443,0.00000414,0.00000004,0.00000584,-0.00
 000118,-0.00000018,-0.00000142,-0.00000448,0.00000089,-0.00000589,-0.0
 0000307,0.00000247,0.00000471,-0.00000037,-0.00000021,0.00001667,0.000
 01094,-0.00000233,-0.00006679,0.00001056,0.00003565,-0.00038876,0.0004
 1005,0.00000756,0.11150946,0.29245671,0.00000257,-0.00000115,-0.000001
 35,0.00000078,0.00000092,-0.00000132,0.00000272,0.00000229,-0.00000206
 ,-0.00000347,-0.00000181,-0.00000027,0.00000249,-0.00000005,-0.0000022
 8,-0.00000128,-0.00000246,0.00000046,-0.00000062,0.00000328,-0.0000024
 3,0.00000387,-0.00001088,-0.00004376,-0.00001036,0.00001241,-0.0000089
 8,0.00007149,-0.00000649,0.00009510,-0.00002084,0.00021251,0.00023206,
 -0.00004521,-0.00001878,-0.00008195,0.00003819,-0.00007024,-0.00000503
 ,-0.00076566,-0.00032413,-0.00355030,0.00123787,0.00334300,0.00317984,
 0.02155389,0.04326094,-0.04573901,0.00115124,0.00128213,0.00405175,0.0
 0031655,0.00100900,0.00727413,-0.00005570,-0.00021629,-0.00046289,0.00
 107681,0.00039382,0.00532999,0.00000612,-0.00000642,0.00002093,-0.0000
 0003,-0.00000678,-0.00000861,0.00000091,0.00000004,0.00000050,0.000001
 02,-0.00000059,0.00000105,-0.00000076,0.00000025,0.00000195,0.00000035
 ,0.00000089,0.00000084,0.00000265,0.00000202,0.00001004,-0.00000086,0.
 00000017,0.00000173,-0.00000394,0.00000038,0.00000684,0.00003245,0.000
 02765,0.00021396,0.00009738,-0.00015962,0.00018222,-0.02408376,-0.0479
 7305,0.03461389,-0.00000713,0.00000199,0.00000043,-0.00000365,0.000000
 25,-0.00000017,-0.00001531,-0.00000276,0.00000199,0.00002155,-0.000006
 02,0.00000126,-0.00000321,-0.00001276,0.00000212,0.00000228,0.00001362
 ,-0.00000230,-0.00000513,-0.00002718,0.00000370,-0.00001858,0.00002968
 ,-0.00000190,0.00001959,-0.00000263,-0.00000838,-0.00004633,-0.0000494
 7,0.00001734,0.00004406,-0.00000229,-0.00009639,0.00002761,0.00005793,
 -0.00000160,-0.00011370,0.00032572,-0.00007285,-0.00061880,-0.00057780
 ,0.00016705,0.00064212,0.00328144,0.00031726,-0.01313541,-0.00388967,0
 .00229595,-0.33255416,-0.01578448,0.03268105,-0.00903807,0.00236949,0.
 00096366,0.00093889,-0.00262813,0.00088125,0.00073468,0.00008308,-0.00
 014907,-0.00000921,-0.00001844,0.00000679,0.00000268,0.00000901,-0.000
 00264,-0.00000614,-0.00000004,0.00000077,-0.00000403,0.00000427,-0.000
 00011,0.00000665,-0.00000329,0.00000003,-0.00000155,-0.00000508,0.0000
 0091,-0.00000738,-0.00000327,0.00000133,0.00000601,-0.00000268,-0.0000
 0010,0.00001919,0.00003344,0.00000217,-0.00008763,-0.00000796,0.000007
 39,0.00002883,0.00003690,0.00000040,0.00093518,0.00004190,-0.00058450,
 0.35200076,0.00000155,-0.00001004,0.00000116,0.00000836,0.00000745,-0.
 00000255,-0.00001128,0.00000462,0.00000057,0.00002246,0.00000987,-0.00
 000016,0.00001056,-0.00001876,0.00000153,-0.00000893,0.00000451,0.0000
 0004,-0.00001879,0.00001225,-0.00000044,0.00002087,0.00000681,-0.00000
 279,-0.00005799,0.00007940,-0.00001368,0.00007587,-0.00003288,0.000004
 27,-0.00022724,0.00010414,-0.00011214,-0.00015052,-0.00017291,0.000051
 27,0.00026905,-0.00028006,-0.00004258,0.00089579,0.00068245,-0.0001541
 2,0.00219029,-0.00404895,0.00142208,0.02706217,0.00619031,-0.00311326,
 -0.01610180,-0.05978417,0.00467632,-0.02856418,0.00336523,0.00296132,-
 0.00143369,-0.00449325,0.00157867,0.00036525,-0.00101902,0.00001998,0.
 00007211,0.00007221,-0.00001295,-0.00003845,-0.00007232,0.00001236,-0.
 00000004,0.00000010,0.00000016,-0.00000005,0.00000004,0.00000008,-0.00
 000074,0.00000080,0.00000033,0.00000025,0.00000008,0.00000004,-0.00000
 092,0.00000008,0.00000025,0.00000267,0.00000531,-0.00000080,0.00003122
 ,0.00007845,-0.00000245,0.00012418,0.00000397,-0.00001705,-0.00002818,
 -0.00002464,0.00001739,-0.00071353,0.00101227,-0.00069957,0.01682608,0
 .05723780,0.00000049,0.00000112,-0.00000056,-0.00000127,-0.00000171,-0
 .00000455,0.00000315,-0.00000031,-0.00000003,-0.00000263,0.00000279,0.
 00002564,-0.00000106,0.00000394,0.,0.00000078,-0.00000229,-0.00000172,
 0.00000255,0.00000042,-0.00000558,-0.00000069,-0.00000370,0.00000281,-
 0.00000082,-0.00001941,-0.00006205,0.00000023,0.00001725,0.00005356,-0
 .00006569,-0.00013543,-0.00086456,0.00002685,0.00002968,0.00008170,-0.
 00006511,-0.00004845,-0.00037455,-0.00003408,-0.00000154,0.00023659,0.
 00046619,0.00130909,0.00780468,-0.00192864,0.00009163,0.00409805,0.032
 72436,0.00464346,-0.04176022,0.00518577,-0.00024169,0.00288804,0.00071
 822,0.00170235,0.00567865,-0.00018759,0.00004920,-0.00058282,-0.000005
 57,-0.00000357,0.00003313,0.00000384,0.00000744,-0.00001237,0.00000077
 ,0.00000016,0.00000114,0.00000048,-0.00000037,0.00000058,-0.00000031,0
 .00000059,0.00000258,0.00000019,0.00000060,0.00000050,0.00000101,0.000
 00049,0.00000103,-0.00000084,-0.00000025,0.00000158,0.00000247,-0.0000
 0268,0.00008432,-0.00001064,-0.00000336,-0.00002516,0.00000929,0.00001
 065,0.00007896,-0.00048139,-0.00077779,-0.00449851,-0.03607355,-0.0060
 3399,0.03035281,-0.00001351,0.00000985,0.00000007,-0.00000833,-0.00001
 091,0.00000234,-0.00000761,-0.00000668,0.00000179,0.00000759,-0.000005
 76,0.00000020,-0.00002297,0.00001130,0.00000071,0.00001232,0.00000574,
 -0.00000207,0.00001211,-0.00003183,0.00000280,-0.00005152,0.00003365,-
 0.00000019,0.00008878,-0.00005404,-0.00000535,-0.00009330,0.00002451,0
 .00002223,0.00016095,0.00144553,-0.00019074,-0.00039156,-0.00009181,0.
 00001195,-0.00011848,-0.00012214,0.00004021,0.00023508,-0.00006350,-0.
 00010835,-0.00053672,-0.00072208,0.00008207,-0.00046777,-0.00251204,0.
 00100905,0.01126475,-0.01297906,0.00096585,-0.14389081,0.12796806,-0.0
 0643529,-0.01273522,0.02733488,-0.00202758,-0.00482322,-0.00193789,0.0
 0158307,-0.00008541,0.00011571,-0.00000838,0.00002060,0.00005788,-0.00
 000575,-0.00000403,-0.00000005,0.00000048,-0.00000320,0.00000283,-0.00
 000012,0.00000530,-0.00000491,0.00000021,-0.00000295,-0.00000443,0.000
 00102,-0.00000929,-0.00000360,0.00000157,0.00000593,-0.00001047,0.0000
 0140,0.00002017,-0.00002941,0.00000372,-0.00000333,0.00001889,0.000007
 43,-0.00001705,0.00006102,-0.00000270,0.00037113,-0.00065002,0.0000732
 8,0.00075556,0.00067527,-0.00052943,0.14921271,0.00000903,0.00000581,-
 0.00000170,-0.00000398,-0.00000013,0.00000041,0.00001718,-0.00000002,-
 0.00000166,-0.00003314,0.00000317,0.00000326,0.00000137,0.00001894,-0.
 00000289,0.00000376,-0.00001405,0.00000152,0.00001919,0.00000393,-0.00
 000291,-0.00000004,-0.00003464,0.00000350,0.00002466,-0.00002287,-0.00
 000409,-0.00000351,-0.00002847,0.00002523,-0.00006147,0.00015454,0.000
 01588,0.00004416,0.00007119,-0.00006849,-0.00004347,-0.00003801,0.0000
 2455,0.00010769,0.00000880,-0.00013451,-0.00091384,0.00032777,-0.00004
 510,-0.00376530,-0.00324960,0.00164771,0.01801106,-0.01746779,0.000994
 74,0.12838509,-0.25032098,0.01577366,-0.00336914,0.00509799,0.00016010
 ,-0.00097011,0.00142172,0.00098618,-0.00004450,0.00000656,0.00000183,0
 .00002918,0.00004367,-0.00000333,0.00000427,0.00000004,-0.00000037,0.0
 0000283,-0.00000326,0.00000007,-0.00000410,0.00000171,0.00000030,0.000
 00170,0.00000414,-0.00000059,0.00000594,0.00000320,-0.00000089,-0.0000
 0379,0.00000364,0.00000066,0.00000821,-0.00001551,0.00000363,0.0000217
 2,-0.00000460,0.00001111,-0.00003089,0.00003810,0.00000309,0.00082795,
 -0.00091151,0.00006898,-0.00022272,0.00113330,-0.00060488,-0.13826828,
 0.26293551,0.00000019,-0.00000179,0.00000041,0.00000139,0.00000113,-0.
 00000044,-0.00000146,0.00000082,0.00000093,0.00000394,0.00000043,0.000
 00149,0.00000207,-0.00000392,-0.00000086,-0.00000180,0.00000131,-0.000
 00007,-0.00000417,0.00000237,-0.00000273,0.00000441,0.00000001,-0.0000
 0948,-0.00001609,0.00000406,-0.00003302,0.00002606,0.00002233,0.000147
 98,0.00001495,-0.00014016,0.00024187,-0.00000660,-0.00005441,-0.000389
 02,0.00002947,0.00003269,0.00010133,-0.00013171,-0.00011679,-0.0008654
 3,0.00010824,-0.00006496,-0.00069827,0.00118011,0.00151794,0.00563664,
 -0.00326397,0.00420361,0.00324822,-0.00649221,0.01581684,-0.03884390,0
 .00216319,-0.00301914,0.00390315,0.00145098,0.00108639,0.00761257,0.00
 001349,-0.00001476,-0.00001320,-0.00000183,-0.00000631,0.00004244,-0.0
 0000011,0.00000008,0.00000058,-0.00000012,0.00000007,-0.00000061,0.000
 00010,0.00000039,0.00000077,0.00000019,0.00000004,0.00000105,0.0000002
 7,0.00000010,0.00000113,0.00000048,0.00000135,0.00000537,-0.00000142,0
 .00000752,0.00001642,0.00000704,0.00001141,0.00009101,0.00000984,-0.00
 000643,0.00003715,-0.00012845,0.00022202,0.00020501,-0.00040687,-0.000
 69787,-0.00333002,0.00608261,-0.01806373,0.02753143,0.00000831,-0.0000
 1387,0.00000116,0.00001481,-0.00000052,-0.00000319,0.00001209,0.000019
 90,-0.00000297,0.00001302,-0.00002074,0.00000700,0.00001804,0.00000017
 ,-0.00000088,-0.00001335,-0.00001484,0.00000293,-0.00003423,0.00003017
 ,-0.00000298,0.00001528,0.00001246,-0.00000497,-0.00008306,-0.00026956
 ,0.00001781,-0.00254356,0.00169147,0.00003508,-0.00020618,-0.00133157,
 -0.00013218,0.00008788,0.00002578,-0.00001650,0.00012005,0.00002279,-0
 .00003508,0.00065190,0.00067374,-0.00013130,-0.00195544,0.00290445,0.0
 0041491,-0.00060023,0.00072956,-0.00009113,-0.00526756,0.00114960,0.00
 117258,-0.00918523,-0.03005727,0.00555423,-0.10413295,-0.10174260,0.02
 070708,0.01251411,0.01505491,-0.00295584,0.00009905,-0.00010370,0.0000
 1294,0.00001094,-0.00005369,0.00000399,0.00000665,-0.00000074,-0.00000
 031,0.00000530,-0.00000410,0.00000010,-0.00000779,0.00000118,0.0000010
 2,0.00000157,0.00000584,-0.00000076,0.00001486,0.00000693,-0.00000250,
 -0.00000597,-0.00002182,0.00000673,-0.00320652,-0.00004496,0.00046879,
 -0.00001996,-0.00002215,0.00000749,-0.00014334,0.00023672,-0.00001818,
 0.00003620,-0.00008479,-0.00010093,-0.00050970,-0.00128857,0.00024168,
 0.00116308,0.00021436,-0.00064264,0.11310264,0.00000821,0.00000267,-0.
 00000105,-0.00000851,0.00001882,-0.00000396,-0.00002438,-0.00002252,0.
 00000691,-0.00002470,0.00008951,-0.00000239,0.00001853,-0.00000440,0.0
 0000001,-0.00000231,0.00000857,-0.00000156,0.00001097,-0.00002083,-0.0
 0000147,0.00004886,-0.00000242,-0.00000695,0.00002686,0.00081729,-0.00
 015069,-0.00086781,-0.00067708,0.00018567,-0.00184862,-0.00020086,-0.0
 0022312,0.00014175,-0.00013426,-0.00000147,-0.00005320,0.00000008,-0.0
 0002026,-0.00104457,-0.00063307,0.00023168,0.00426808,-0.00191011,0.00
 062136,0.00069668,0.00043715,-0.00020260,-0.00018580,0.00173865,0.0008
 1546,0.00156040,0.00136066,0.00031266,-0.10224626,-0.28373995,0.044091
 79,-0.01232110,-0.01849951,0.00432114,-0.00009536,0.00011356,0.0000062
 9,-0.00016147,-0.00000703,0.00001477,-0.00000329,0.00000080,0.00000059
 ,-0.00000491,0.00000171,0.00000039,0.00000118,0.00000464,-0.00000027,0
 .00000162,-0.00000118,0.00000025,-0.00000922,-0.00000200,0.00000120,0.
 00001133,0.00003243,-0.00000146,-0.00024635,0.00176505,-0.00004320,0.0
 0005838,0.00002019,-0.00000563,0.00021065,-0.00031278,0.00001994,-0.00
 009270,-0.00008885,-0.00012163,0.00012481,-0.00005586,0.00001188,-0.00
 026365,0.00083272,-0.00073615,0.11231122,0.29906227,-0.00000185,0.0000
 0124,0.00000124,-0.00000210,-0.00000479,-0.00001579,0.00000307,0.00000
 233,0.00000901,0.00000754,-0.00000280,0.00005285,-0.00000339,0.0000019
 1,0.00000983,0.00000122,-0.00000026,-0.00000471,-0.00000036,-0.0000034
 6,-0.00002276,-0.00000993,-0.00000318,-0.00001478,-0.00002264,-0.00011
 999,-0.00024763,0.00038440,-0.00007933,-0.00000405,-0.00006161,-0.0002
 7666,-0.00319385,-0.00003233,0.00001054,-0.00003559,-0.00002471,-0.000
 02813,-0.00018233,0.00010323,0.00005376,0.00025392,0.00022879,0.000762
 55,0.00575242,-0.00008664,-0.00020600,-0.00048159,0.00135485,0.0006771
 8,0.00733949,0.00123876,0.00358650,0.00421737,0.02077582,0.04403963,-0
 .04642687,0.00078070,0.00148650,0.00352880,0.00001180,0.00000715,0.000
 08510,0.00001870,0.00000361,-0.00002375,0.00000003,0.00000033,0.000002
 58,0.00000021,0.00000030,0.00000077,0.00000102,-0.00000027,0.00000352,
 -0.00000019,-0.00000018,0.00000195,-0.00000030,-0.00000047,-0.00000009
 ,0.00000221,0.00000197,0.00002981,0.00049628,-0.00006406,0.00121900,-0
 .00000350,0.00000271,0.00002321,-0.00001462,0.00001724,-0.00000770,-0.
 00009985,-0.00012245,-0.00102324,0.00004877,0.00015822,0.00009920,-0.0
 0057739,-0.00078564,-0.00459372,-0.02451488,-0.04911888,0.03363374,-0.
 00000651,0.00005196,-0.00000831,-0.00010852,0.00010172,-0.00004169,-0.
 00252301,-0.00177047,0.00050429,-0.00047824,0.00121041,-0.00049457,0.0
 0011169,0.00006065,-0.00002605,0.00008936,0.00011116,-0.00000851,0.000
 11986,-0.00004359,-0.00003085,0.00058000,-0.00052007,0.00003474,-0.001
 29686,-0.00253975,0.00113199,-0.00049476,-0.00075319,0.00011394,-0.004
 65584,-0.00189829,0.00135641,-0.01285053,0.02787802,-0.00198060,0.0008
 4687,0.00225900,-0.00083388,0.00015492,-0.00039525,0.00003499,0.000117
 01,0.00020763,-0.00005333,0.00005367,-0.00012703,0.00001537,-0.0000282
 4,0.00000432,0.00000167,-0.00001849,0.00009383,-0.00001021,-0.00039871
 ,-0.00021226,0.00008436,-0.00017804,0.00153443,-0.00017240,-0.12316976
 ,0.11764320,-0.00724609,0.01274165,-0.01253954,0.00086195,0.00001919,0
 .00003122,0.00000247,0.00002017,0.00000821,-0.00000142,-0.00320652,-0.
 00024635,0.00049628,0.00002261,0.00001667,-0.00000394,-0.00001855,0.00
 002119,0.00000259,-0.00009687,-0.00021309,0.00004156,-0.00002192,0.000
 06422,-0.00010953,-0.00022809,-0.00131428,0.00022297,0.00000089,-0.000
 00378,0.00003010,-0.00002873,-0.00000920,0.00000528,-0.00000053,-0.000
 00909,0.00000099,-0.00004980,-0.00000108,0.00000044,0.00001929,0.00000
 466,-0.00000109,0.13496132,0.00012484,0.00002934,-0.00001942,-0.000105
 10,0.00081166,-0.00015136,0.00076419,-0.00075323,0.00002552,0.00172716
 ,0.00000575,-0.00067905,-0.00012525,-0.00012800,0.00002226,0.00009963,
 0.00010771,-0.00000404,0.00004029,0.00000280,-0.00003670,0.00119005,-0
 .00061602,-0.00000776,-0.00416431,-0.00222482,0.00159306,-0.00057347,0
 .00035373,-0.00004174,-0.00032275,0.00130000,0.00066695,-0.00082855,0.
 00169413,0.00050553,-0.00252977,0.00059634,-0.00039663,0.00033475,0.00
 014474,-0.00005827,-0.00014051,0.00020454,-0.00003034,0.00003573,-0.00
 002809,0.00000487,0.00002000,0.00004796,-0.00000949,-0.00003946,-0.000
 01571,0.00000713,0.00006428,0.00000738,0.00001093,-0.00030483,-0.00010
 414,0.00007029,0.11842358,-0.26783730,0.01909773,0.01486142,-0.0188889
 2,0.00165854,0.00003344,0.00007845,-0.00000268,-0.00002941,-0.00001551
 ,0.00000752,-0.00004496,0.00176505,-0.00006406,-0.00000954,0.00001094,
 0.00000038,-0.00005852,0.00001706,0.00000843,-0.00018030,-0.00034716,0
 .00006927,0.00006422,-0.00011822,-0.00012633,0.00030671,0.00035518,-0.
 00005392,0.00006628,0.00001317,0.00003046,0.00000764,0.00000985,-0.000
 00075,0.00000703,0.00000140,-0.00000132,0.00000743,-0.00000500,-0.0000
 0650,-0.00001578,0.00000595,0.00000286,-0.12870616,0.28351899,-0.00001
 825,-0.00001187,-0.00001473,-0.00001346,-0.00017278,-0.00035207,0.0001
 5834,0.00028797,-0.00004219,-0.00056510,-0.00062555,-0.00351523,-0.000
 00068,0.00000301,-0.00006030,-0.00000693,-0.00000523,0.00015516,-0.000
 04230,-0.00002801,-0.00022731,-0.00019868,0.00016931,0.00022740,0.0013
 5372,0.00142484,0.00595304,0.00008941,-0.00002314,-0.00039326,0.001141
 36,0.00083009,0.00571016,0.00193754,-0.00246688,0.00490548,-0.00018027
 ,-0.00089248,-0.00408826,-0.00006465,0.00001732,-0.00002388,-0.0000058
 1,-0.00006639,-0.00011467,-0.00000684,0.00002172,0.00003243,-0.0000004
 7,-0.00000787,-0.00000530,0.00000799,-0.00000667,0.00000670,0.00004661
 ,0.00003956,0.00012598,0.00007864,-0.00012015,0.00018787,-0.00735261,0
 .01917853,-0.03993298,-0.00287799,0.00449576,0.00422119,0.00000217,-0.
 00000245,0.00008432,0.00000372,0.00000363,0.00001642,0.00046879,-0.000
 04320,0.00121900,-0.00000037,-0.00000233,0.00000684,0.00001347,0.00000
 017,0.00003299,0.00003708,0.00007267,0.00000982,-0.00010953,-0.0001263
 3,-0.00096649,0.00000172,0.00011392,0.00017707,0.00002054,0.00003771,0
 .00027933,0.00000299,0.00000100,0.00000972,-0.00000121,0.00000035,-0.0
 0000285,-0.00000073,-0.00000562,-0.00004617,0.00000170,0.00000074,0.00
 001464,0.00608009,-0.02209138,0.02641013\\-0.00001407,0.00001441,-0.00
 000051,-0.00004448,0.00001200,0.00000297,0.00001726,-0.00000442,-0.000
 00118,-0.00002224,0.00001606,0.00000011,-0.00009626,-0.00009430,0.0000
 2284,0.00003969,0.00006761,-0.00001334,0.00007318,0.00003426,-0.000012
 25,-0.00009191,0.00003601,0.00000460,0.00012175,-0.00013566,0.00000591
 ,-0.00004849,0.00007524,-0.00000525,0.00000759,-0.00004813,0.00000578,
 -0.00012175,0.00013566,-0.00000591,0.00009191,-0.00003601,-0.00000460,
 -0.00007318,-0.00003426,0.00001225,0.00009626,0.00009430,-0.00002284,-
 0.00003969,-0.00006761,0.00001334,0.00001407,-0.00001441,0.00000051,0.
 00004448,-0.00001200,-0.00000297,-0.00001726,0.00000442,0.00000118,0.0
 0002224,-0.00001606,-0.00000011,0.00004849,-0.00007524,0.00000525,-0.0
 0000759,0.00004813,-0.00000578,0.00001309,-0.00000536,-0.00000062,0.00
 000655,-0.00000736,0.00000033,0.00000070,-0.00000810,0.00000103,0.0000
 1567,-0.00002395,0.00000165,-0.00002202,-0.00000048,0.00000235,0.00002
 318,-0.00000264,-0.00000204,-0.00000888,-0.00002544,0.00000439,-0.0000
 2318,0.00000264,0.00000204,0.00002202,0.00000048,-0.00000235,-0.000015
 67,0.00002395,-0.00000165,-0.00001309,0.00000536,0.00000062,-0.0000065
 5,0.00000736,-0.00000033,-0.00000070,0.00000810,-0.00000103,0.00000888
 ,0.00002544,-0.00000439\\\@
 The archive entry for this job was punched.


 When cryptography is outlawed, bayl bhgynjf jvyy unir cevinpl.
 Job cpu time:       0 days  0 hours 35 minutes 55.2 seconds.
 Elapsed time:       0 days  0 hours  4 minutes 29.4 seconds.
 File lengths (MBytes):  RWF=    308 Int=      0 D2E=      0 Chk=     11 Scr=      1
 Normal termination of Gaussian 16 at Tue Oct  8 22:55:15 2024.
