 Entering Gaussian System, Link 0=g16
 Initial command:
 /opt/g16/l1.exe "/tmp/Gau-1296026.inp" -scrdir="/tmp/"
 Entering Link 1 = /opt/g16/l1.exe PID=   1296028.
  
 Copyright (c) 1988-2019, Gaussian, Inc.  All Rights Reserved.
  
 This is part of the Gaussian(R) 16 program.  It is based on
 the Gaussian(R) 09 system (copyright 2009, Gaussian, Inc.),
 the Gaussian(R) 03 system (copyright 2003, Gaussian, Inc.),
 the Gaussian(R) 98 system (copyright 1998, Gaussian, Inc.),
 the Gaussian(R) 94 system (copyright 1995, Gaussian, Inc.),
 the Gaussian 92(TM) system (copyright 1992, Gaussian, Inc.),
 the Gaussian 90(TM) system (copyright 1990, Gaussian, Inc.),
 the Gaussian 88(TM) system (copyright 1988, Gaussian, Inc.),
 the Gaussian 86(TM) system (copyright 1986, Carnegie Mellon
 University), and the Gaussian 82(TM) system (copyright 1983,
 Carnegie Mellon University). Gaussian is a federally registered
 trademark of Gaussian, Inc.
  
 This software contains proprietary and confidential information,
 including trade secrets, belonging to Gaussian, Inc.
  
 This software is provided under written license and may be
 used, copied, transmitted, or stored only in accord with that
 written license.
  
 The following legend is applicable only to US Government
 contracts under FAR:
  
                    RESTRICTED RIGHTS LEGEND
  
 Use, reproduction and disclosure by the US Government is
 subject to restrictions as set forth in subparagraphs (a)
 and (c) of the Commercial Computer Software - Restricted
 Rights clause in FAR 52.227-19.
  
 Gaussian, Inc.
 340 Quinnipiac St., Bldg. 40, Wallingford CT 06492
  
  
 ---------------------------------------------------------------
 Warning -- This program may not be used in any manner that
 competes with the business of Gaussian, Inc. or will provide
 assistance to any competitor of Gaussian, Inc.  The licensee
 of this program is prohibited from giving any competitor of
 Gaussian, Inc. access to this program.  By using this program,
 the user acknowledges that Gaussian, Inc. is engaged in the
 business of creating and licensing software in the field of
 computational chemistry and represents and warrants to the
 licensee that it is not a competitor of Gaussian, Inc. and that
 it will not use this program in any manner prohibited above.
 ---------------------------------------------------------------
  

 Cite this work as:
 Gaussian 16, Revision C.01,
 M. J. Frisch, G. W. Trucks, H. B. Schlegel, G. E. Scuseria, 
 M. A. Robb, J. R. Cheeseman, G. Scalmani, V. Barone, 
 G. A. Petersson, H. Nakatsuji, X. Li, M. Caricato, A. V. Marenich, 
 J. Bloino, B. G. Janesko, R. Gomperts, B. Mennucci, H. P. Hratchian, 
 J. V. Ortiz, A. F. Izmaylov, J. L. Sonnenberg, D. Williams-Young, 
 F. Ding, F. Lipparini, F. Egidi, J. Goings, B. Peng, A. Petrone, 
 T. Henderson, D. Ranasinghe, V. G. Zakrzewski, J. Gao, N. Rega, 
 G. Zheng, W. Liang, M. Hada, M. Ehara, K. Toyota, R. Fukuda, 
 J. Hasegawa, M. Ishida, T. Nakajima, Y. Honda, O. Kitao, H. Nakai, 
 T. Vreven, K. Throssell, J. A. Montgomery, Jr., J. E. Peralta, 
 F. Ogliaro, M. J. Bearpark, J. J. Heyd, E. N. Brothers, K. N. Kudin, 
 V. N. Staroverov, T. A. Keith, R. Kobayashi, J. Normand, 
 K. Raghavachari, A. P. Rendell, J. C. Burant, S. S. Iyengar, 
 J. Tomasi, M. Cossi, J. M. Millam, M. Klene, C. Adamo, R. Cammi, 
 J. W. Ochterski, R. L. Martin, K. Morokuma, O. Farkas, 
 J. B. Foresman, and D. J. Fox, Gaussian, Inc., Wallingford CT, 2019.
 
 ******************************************
 Gaussian 16:  ES64L-G16RevC.01  3-Jul-2019
                 8-Oct-2024 
 ******************************************
 %nprocshared=8
 Will use up to    8 processors via shared memory.
 %mem=10400MB
 ----------------------------------------------------------------------
 #N opt freq B3LYP/def2SVPP symm=veryloose em=gd3bj scale=0.961 press=0
 .987
 ----------------------------------------------------------------------
 1/18=20,19=15,26=3,38=1,113=-987000,114=961000/1,3;
 2/9=110,12=2,17=2,18=2,40=1/2;
 3/5=43,7=202,11=2,25=1,30=1,71=1,74=-5,124=41/1,2,3;
 4//1;
 5/5=2,38=5/2;
 6/7=2,8=2,9=2,10=2,28=1/1;
 7//1,2,3,16;
 1/18=20,19=15,26=3/3(2);
 2/9=110/2;
 99//99;
 2/9=110/2;
 3/5=43,7=202,11=2,25=1,30=1,71=1,74=-5,124=41/1,2,3;
 4/5=5,16=3,69=1/1;
 5/5=2,38=5/2;
 7//1,2,3,16;
 1/18=20,19=15,26=3/3(-5);
 2/9=110/2;
 6/7=2,8=2,9=2,10=2,19=2,28=1/1;
 99/9=1/99;
 ------------------------------------------
 c1ccc2cc3cc4c(ccc5cc6ccccc6cc54)cc3cc2c1_2
 ------------------------------------------
 Symbolic Z-matrix:
 Charge =  0 Multiplicity = 1
 C                     6.9558    0.6103    0.2891 
 C                     6.4659    1.868     0.6267 
 C                     5.0887    2.0895    0.6749 
 C                     4.1837    1.0546    0.3856 
 C                     2.7947    1.2601    0.4294 
 C                     1.889     0.2241    0.1398 
 C                     0.4958    0.4266    0.1827 
 C                    -0.4446   -0.597    -0.1038 
 C                     0.0867   -1.8645   -0.4437 
 C                    -0.7737   -2.9246   -0.7394 
 C                    -2.1543   -2.7542   -0.7052 
 C                    -2.7159   -1.5187   -0.3742 
 C                    -4.115    -1.3822   -0.3493 
 C                    -4.7309   -0.1664   -0.0242 
 C                    -6.1296   -0.0315    0.0003 
 C                    -6.7232    1.1884    0.3268 
 C                    -5.9264    2.2868    0.6323 
 C                    -4.5361    2.1652    0.6114 
 C                    -3.9242    0.9426    0.2844 
 C                    -2.5236    0.8002    0.2579 
 C                    -1.8762   -0.42     -0.0682 
 C                     1.4765   -2.0714   -0.4878 
 C                     2.385    -1.0436   -0.2005 
 C                     3.7743   -1.2538   -0.2455 
 C                     4.6805   -0.2205    0.0433 
 C                     6.0692   -0.4279   -0.0009 
 H                     8.0278    0.4356    0.2509 
 H                     7.1544    2.678     0.8529 
 H                     4.725     3.0795    0.9408 
 H                     2.4119    2.2442    0.6936 
 H                     0.1457    1.42      0.4497 
 H                    -0.3773   -3.9033   -1.0021 
 H                    -2.7891   -3.6056   -0.9422 
 H                    -4.7397   -2.2414   -0.5884 
 H                    -6.768    -0.8799   -0.2359 
 H                    -7.806     1.2792    0.342 
 H                    -6.3848    3.2387    0.8871 
 H                    -3.9301    3.0355    0.8533 
 H                    -1.9304    1.6773    0.5015 
 H                     1.8608   -3.0556   -0.752 
 H                     4.1565   -2.2381   -0.5098 
 H                     6.4713   -1.4041   -0.2628 
 

 GradGradGradGradGradGradGradGradGradGradGradGradGradGradGradGradGradGrad
 Berny optimization.
 Initialization pass.
                           ----------------------------
                           !    Initial Parameters    !
                           ! (Angstroms and Degrees)  !
 --------------------------                            --------------------------
 ! Name  Definition              Value          Derivative Info.                !
 --------------------------------------------------------------------------------
 ! R1    R(1,2)                  1.3913         estimate D2E/DX2                !
 ! R2    R(1,26)                 1.3957         estimate D2E/DX2                !
 ! R3    R(1,27)                 1.0868         estimate D2E/DX2                !
 ! R4    R(2,3)                  1.3957         estimate D2E/DX2                !
 ! R5    R(2,28)                 1.0869         estimate D2E/DX2                !
 ! R6    R(3,4)                  1.4049         estimate D2E/DX2                !
 ! R7    R(3,29)                 1.0877         estimate D2E/DX2                !
 ! R8    R(4,5)                  1.4048         estimate D2E/DX2                !
 ! R9    R(4,25)                 1.4106         estimate D2E/DX2                !
 ! R10   R(5,6)                  1.4062         estimate D2E/DX2                !
 ! R11   R(5,30)                 1.0885         estimate D2E/DX2                !
 ! R12   R(6,7)                  1.4085         estimate D2E/DX2                !
 ! R13   R(6,23)                 1.4032         estimate D2E/DX2                !
 ! R14   R(7,8)                  1.4192         estimate D2E/DX2                !
 ! R15   R(7,31)                 1.0866         estimate D2E/DX2                !
 ! R16   R(8,9)                  1.4158         estimate D2E/DX2                !
 ! R17   R(8,21)                 1.4429         estimate D2E/DX2                !
 ! R18   R(9,10)                 1.397          estimate D2E/DX2                !
 ! R19   R(9,22)                 1.4058         estimate D2E/DX2                !
 ! R20   R(10,11)                1.3915         estimate D2E/DX2                !
 ! R21   R(10,32)                1.0881         estimate D2E/DX2                !
 ! R22   R(11,12)                1.3969         estimate D2E/DX2                !
 ! R23   R(11,33)                1.0881         estimate D2E/DX2                !
 ! R24   R(12,13)                1.406          estimate D2E/DX2                !
 ! R25   R(12,21)                1.4163         estimate D2E/DX2                !
 ! R26   R(13,14)                1.4011         estimate D2E/DX2                !
 ! R27   R(13,34)                1.0889         estimate D2E/DX2                !
 ! R28   R(14,15)                1.4054         estimate D2E/DX2                !
 ! R29   R(14,19)                1.4057         estimate D2E/DX2                !
 ! R30   R(15,16)                1.3954         estimate D2E/DX2                !
 ! R31   R(15,35)                1.0877         estimate D2E/DX2                !
 ! R32   R(16,17)                1.3909         estimate D2E/DX2                !
 ! R33   R(16,36)                1.0867         estimate D2E/DX2                !
 ! R34   R(17,18)                1.3958         estimate D2E/DX2                !
 ! R35   R(17,37)                1.0868         estimate D2E/DX2                !
 ! R36   R(18,19)                1.4057         estimate D2E/DX2                !
 ! R37   R(18,38)                1.0877         estimate D2E/DX2                !
 ! R38   R(19,20)                1.4081         estimate D2E/DX2                !
 ! R39   R(20,21)                1.4193         estimate D2E/DX2                !
 ! R40   R(20,39)                1.0865         estimate D2E/DX2                !
 ! R41   R(22,23)                1.4015         estimate D2E/DX2                !
 ! R42   R(22,40)                1.0891         estimate D2E/DX2                !
 ! R43   R(23,24)                1.4058         estimate D2E/DX2                !
 ! R44   R(24,25)                1.4044         estimate D2E/DX2                !
 ! R45   R(24,41)                1.0885         estimate D2E/DX2                !
 ! R46   R(25,26)                1.4048         estimate D2E/DX2                !
 ! R47   R(26,42)                1.0878         estimate D2E/DX2                !
 ! A1    A(2,1,26)             119.944          estimate D2E/DX2                !
 ! A2    A(2,1,27)             120.0759         estimate D2E/DX2                !
 ! A3    A(26,1,27)            119.9801         estimate D2E/DX2                !
 ! A4    A(1,2,3)              119.9518         estimate D2E/DX2                !
 ! A5    A(1,2,28)             120.0747         estimate D2E/DX2                !
 ! A6    A(3,2,28)             119.9735         estimate D2E/DX2                !
 ! A7    A(2,3,4)              120.771          estimate D2E/DX2                !
 ! A8    A(2,3,29)             118.87           estimate D2E/DX2                !
 ! A9    A(4,3,29)             120.359          estimate D2E/DX2                !
 ! A10   A(3,4,5)              121.5169         estimate D2E/DX2                !
 ! A11   A(3,4,25)             119.2727         estimate D2E/DX2                !
 ! A12   A(5,4,25)             119.2104         estimate D2E/DX2                !
 ! A13   A(4,5,6)              121.5088         estimate D2E/DX2                !
 ! A14   A(4,5,30)             119.1797         estimate D2E/DX2                !
 ! A15   A(6,5,30)             119.3115         estimate D2E/DX2                !
 ! A16   A(5,6,7)              121.6603         estimate D2E/DX2                !
 ! A17   A(5,6,23)             119.2011         estimate D2E/DX2                !
 ! A18   A(7,6,23)             119.1386         estimate D2E/DX2                !
 ! A19   A(6,7,8)              123.0643         estimate D2E/DX2                !
 ! A20   A(6,7,31)             117.2338         estimate D2E/DX2                !
 ! A21   A(8,7,31)             119.7019         estimate D2E/DX2                !
 ! A22   A(7,8,9)              116.4562         estimate D2E/DX2                !
 ! A23   A(7,8,21)             124.3299         estimate D2E/DX2                !
 ! A24   A(9,8,21)             119.2139         estimate D2E/DX2                !
 ! A25   A(8,9,10)             119.9387         estimate D2E/DX2                !
 ! A26   A(8,9,22)             120.6836         estimate D2E/DX2                !
 ! A27   A(10,9,22)            119.3777         estimate D2E/DX2                !
 ! A28   A(9,10,11)            120.8605         estimate D2E/DX2                !
 ! A29   A(9,10,32)            120.6157         estimate D2E/DX2                !
 ! A30   A(11,10,32)           118.5238         estimate D2E/DX2                !
 ! A31   A(10,11,12)           120.8643         estimate D2E/DX2                !
 ! A32   A(10,11,33)           118.532          estimate D2E/DX2                !
 ! A33   A(12,11,33)           120.6037         estimate D2E/DX2                !
 ! A34   A(11,12,13)           119.3488         estimate D2E/DX2                !
 ! A35   A(11,12,21)           119.9307         estimate D2E/DX2                !
 ! A36   A(13,12,21)           120.7205         estimate D2E/DX2                !
 ! A37   A(12,13,14)           121.7206         estimate D2E/DX2                !
 ! A38   A(12,13,34)           119.3678         estimate D2E/DX2                !
 ! A39   A(14,13,34)           118.9115         estimate D2E/DX2                !
 ! A40   A(13,14,15)           121.6554         estimate D2E/DX2                !
 ! A41   A(13,14,19)           118.8988         estimate D2E/DX2                !
 ! A42   A(15,14,19)           119.4458         estimate D2E/DX2                !
 ! A43   A(14,15,16)           120.7548         estimate D2E/DX2                !
 ! A44   A(14,15,35)           120.3622         estimate D2E/DX2                !
 ! A45   A(16,15,35)           118.883          estimate D2E/DX2                !
 ! A46   A(15,16,17)           119.8724         estimate D2E/DX2                !
 ! A47   A(15,16,36)           120.0126         estimate D2E/DX2                !
 ! A48   A(17,16,36)           120.115          estimate D2E/DX2                !
 ! A49   A(16,17,18)           119.9023         estimate D2E/DX2                !
 ! A50   A(16,17,37)           120.1012         estimate D2E/DX2                !
 ! A51   A(18,17,37)           119.9966         estimate D2E/DX2                !
 ! A52   A(17,18,19)           120.853          estimate D2E/DX2                !
 ! A53   A(17,18,38)           118.8098         estimate D2E/DX2                !
 ! A54   A(19,18,38)           120.3372         estimate D2E/DX2                !
 ! A55   A(14,19,18)           119.1718         estimate D2E/DX2                !
 ! A56   A(14,19,20)           119.139          estimate D2E/DX2                !
 ! A57   A(18,19,20)           121.6892         estimate D2E/DX2                !
 ! A58   A(19,20,21)           123.0245         estimate D2E/DX2                !
 ! A59   A(19,20,39)           117.2071         estimate D2E/DX2                !
 ! A60   A(21,20,39)           119.7685         estimate D2E/DX2                !
 ! A61   A(8,21,12)            119.192          estimate D2E/DX2                !
 ! A62   A(8,21,20)            124.3114         estimate D2E/DX2                !
 ! A63   A(12,21,20)           116.4966         estimate D2E/DX2                !
 ! A64   A(9,22,23)            121.7678         estimate D2E/DX2                !
 ! A65   A(9,22,40)            119.3045         estimate D2E/DX2                !
 ! A66   A(23,22,40)           118.9276         estimate D2E/DX2                !
 ! A67   A(6,23,22)            118.8893         estimate D2E/DX2                !
 ! A68   A(6,23,24)            119.4837         estimate D2E/DX2                !
 ! A69   A(22,23,24)           121.627          estimate D2E/DX2                !
 ! A70   A(23,24,25)           121.4047         estimate D2E/DX2                !
 ! A71   A(23,24,41)           119.3397         estimate D2E/DX2                !
 ! A72   A(25,24,41)           119.2556         estimate D2E/DX2                !
 ! A73   A(4,25,24)            119.1912         estimate D2E/DX2                !
 ! A74   A(4,25,26)            119.2904         estimate D2E/DX2                !
 ! A75   A(24,25,26)           121.5184         estimate D2E/DX2                !
 ! A76   A(1,26,25)            120.7701         estimate D2E/DX2                !
 ! A77   A(1,26,42)            118.8661         estimate D2E/DX2                !
 ! A78   A(25,26,42)           120.3638         estimate D2E/DX2                !
 ! D1    D(26,1,2,3)             0.0029         estimate D2E/DX2                !
 ! D2    D(26,1,2,28)         -179.9983         estimate D2E/DX2                !
 ! D3    D(27,1,2,3)           179.9965         estimate D2E/DX2                !
 ! D4    D(27,1,2,28)           -0.0047         estimate D2E/DX2                !
 ! D5    D(2,1,26,25)            0.0002         estimate D2E/DX2                !
 ! D6    D(2,1,26,42)          179.9969         estimate D2E/DX2                !
 ! D7    D(27,1,26,25)        -179.9934         estimate D2E/DX2                !
 ! D8    D(27,1,26,42)           0.0033         estimate D2E/DX2                !
 ! D9    D(1,2,3,4)             -0.0045         estimate D2E/DX2                !
 ! D10   D(1,2,3,29)          -179.9981         estimate D2E/DX2                !
 ! D11   D(28,2,3,4)           179.9966         estimate D2E/DX2                !
 ! D12   D(28,2,3,29)            0.0031         estimate D2E/DX2                !
 ! D13   D(2,3,4,5)            179.9975         estimate D2E/DX2                !
 ! D14   D(2,3,4,25)             0.0031         estimate D2E/DX2                !
 ! D15   D(29,3,4,5)            -0.009          estimate D2E/DX2                !
 ! D16   D(29,3,4,25)          179.9966         estimate D2E/DX2                !
 ! D17   D(3,4,5,6)           -179.9998         estimate D2E/DX2                !
 ! D18   D(3,4,5,30)             0.0048         estimate D2E/DX2                !
 ! D19   D(25,4,5,6)            -0.0054         estimate D2E/DX2                !
 ! D20   D(25,4,5,30)          179.9992         estimate D2E/DX2                !
 ! D21   D(3,4,25,24)          179.9966         estimate D2E/DX2                !
 ! D22   D(3,4,25,26)           -0.0001         estimate D2E/DX2                !
 ! D23   D(5,4,25,24)            0.0021         estimate D2E/DX2                !
 ! D24   D(5,4,25,26)         -179.9946         estimate D2E/DX2                !
 ! D25   D(4,5,6,7)           -179.9978         estimate D2E/DX2                !
 ! D26   D(4,5,6,23)             0.0052         estimate D2E/DX2                !
 ! D27   D(30,5,6,7)            -0.0024         estimate D2E/DX2                !
 ! D28   D(30,5,6,23)         -179.9994         estimate D2E/DX2                !
 ! D29   D(5,6,7,8)           -179.9985         estimate D2E/DX2                !
 ! D30   D(5,6,7,31)             0.0032         estimate D2E/DX2                !
 ! D31   D(23,6,7,8)            -0.0015         estimate D2E/DX2                !
 ! D32   D(23,6,7,31)         -179.9998         estimate D2E/DX2                !
 ! D33   D(5,6,23,22)          179.9957         estimate D2E/DX2                !
 ! D34   D(5,6,23,24)           -0.0016         estimate D2E/DX2                !
 ! D35   D(7,6,23,22)           -0.0014         estimate D2E/DX2                !
 ! D36   D(7,6,23,24)         -179.9988         estimate D2E/DX2                !
 ! D37   D(6,7,8,9)              0.0031         estimate D2E/DX2                !
 ! D38   D(6,7,8,21)          -179.9985         estimate D2E/DX2                !
 ! D39   D(31,7,8,9)          -179.9987         estimate D2E/DX2                !
 ! D40   D(31,7,8,21)           -0.0003         estimate D2E/DX2                !
 ! D41   D(7,8,9,10)           179.999          estimate D2E/DX2                !
 ! D42   D(7,8,9,22)            -0.0018         estimate D2E/DX2                !
 ! D43   D(21,8,9,10)            0.0006         estimate D2E/DX2                !
 ! D44   D(21,8,9,22)          179.9997         estimate D2E/DX2                !
 ! D45   D(7,8,21,12)         -179.9984         estimate D2E/DX2                !
 ! D46   D(7,8,21,20)           -0.0018         estimate D2E/DX2                !
 ! D47   D(9,8,21,12)            0.0            estimate D2E/DX2                !
 ! D48   D(9,8,21,20)          179.9966         estimate D2E/DX2                !
 ! D49   D(8,9,10,11)            0.0018         estimate D2E/DX2                !
 ! D50   D(8,9,10,32)          179.9926         estimate D2E/DX2                !
 ! D51   D(22,9,10,11)        -179.9973         estimate D2E/DX2                !
 ! D52   D(22,9,10,32)          -0.0065         estimate D2E/DX2                !
 ! D53   D(8,9,22,23)           -0.001          estimate D2E/DX2                !
 ! D54   D(8,9,22,40)         -179.9986         estimate D2E/DX2                !
 ! D55   D(10,9,22,23)         179.9982         estimate D2E/DX2                !
 ! D56   D(10,9,22,40)           0.0006         estimate D2E/DX2                !
 ! D57   D(9,10,11,12)          -0.0048         estimate D2E/DX2                !
 ! D58   D(9,10,11,33)         179.9996         estimate D2E/DX2                !
 ! D59   D(32,10,11,12)       -179.9958         estimate D2E/DX2                !
 ! D60   D(32,10,11,33)          0.0086         estimate D2E/DX2                !
 ! D61   D(10,11,12,13)       -179.9964         estimate D2E/DX2                !
 ! D62   D(10,11,12,21)          0.0053         estimate D2E/DX2                !
 ! D63   D(33,11,12,13)         -0.0009         estimate D2E/DX2                !
 ! D64   D(33,11,12,21)       -179.9992         estimate D2E/DX2                !
 ! D65   D(11,12,13,14)       -179.9967         estimate D2E/DX2                !
 ! D66   D(11,12,13,34)         -0.0031         estimate D2E/DX2                !
 ! D67   D(21,12,13,14)          0.0015         estimate D2E/DX2                !
 ! D68   D(21,12,13,34)        179.9952         estimate D2E/DX2                !
 ! D69   D(11,12,21,8)          -0.0029         estimate D2E/DX2                !
 ! D70   D(11,12,21,20)       -179.9997         estimate D2E/DX2                !
 ! D71   D(13,12,21,8)         179.9989         estimate D2E/DX2                !
 ! D72   D(13,12,21,20)          0.002          estimate D2E/DX2                !
 ! D73   D(12,13,14,15)       -179.9985         estimate D2E/DX2                !
 ! D74   D(12,13,14,19)         -0.0055         estimate D2E/DX2                !
 ! D75   D(34,13,14,15)          0.0078         estimate D2E/DX2                !
 ! D76   D(34,13,14,19)       -179.9992         estimate D2E/DX2                !
 ! D77   D(13,14,15,16)        179.9958         estimate D2E/DX2                !
 ! D78   D(13,14,15,35)         -0.0029         estimate D2E/DX2                !
 ! D79   D(19,14,15,16)          0.0028         estimate D2E/DX2                !
 ! D80   D(19,14,15,35)       -179.996          estimate D2E/DX2                !
 ! D81   D(13,14,19,18)       -179.9993         estimate D2E/DX2                !
 ! D82   D(13,14,19,20)          0.0058         estimate D2E/DX2                !
 ! D83   D(15,14,19,18)         -0.0061         estimate D2E/DX2                !
 ! D84   D(15,14,19,20)        179.999          estimate D2E/DX2                !
 ! D85   D(14,15,16,17)          0.0033         estimate D2E/DX2                !
 ! D86   D(14,15,16,36)        179.9965         estimate D2E/DX2                !
 ! D87   D(35,15,16,17)       -179.998          estimate D2E/DX2                !
 ! D88   D(35,15,16,36)         -0.0048         estimate D2E/DX2                !
 ! D89   D(15,16,17,18)         -0.0059         estimate D2E/DX2                !
 ! D90   D(15,16,17,37)        179.9993         estimate D2E/DX2                !
 ! D91   D(36,16,17,18)       -179.9991         estimate D2E/DX2                !
 ! D92   D(36,16,17,37)          0.0061         estimate D2E/DX2                !
 ! D93   D(16,17,18,19)          0.0025         estimate D2E/DX2                !
 ! D94   D(16,17,18,38)       -179.9963         estimate D2E/DX2                !
 ! D95   D(37,17,18,19)        179.9974         estimate D2E/DX2                !
 ! D96   D(37,17,18,38)         -0.0014         estimate D2E/DX2                !
 ! D97   D(17,18,19,14)          0.0035         estimate D2E/DX2                !
 ! D98   D(17,18,19,20)        179.9983         estimate D2E/DX2                !
 ! D99   D(38,18,19,14)       -179.9977         estimate D2E/DX2                !
 ! D100  D(38,18,19,20)         -0.0029         estimate D2E/DX2                !
 ! D101  D(14,19,20,21)         -0.0023         estimate D2E/DX2                !
 ! D102  D(14,19,20,39)        179.9955         estimate D2E/DX2                !
 ! D103  D(18,19,20,21)       -179.9971         estimate D2E/DX2                !
 ! D104  D(18,19,20,39)          0.0007         estimate D2E/DX2                !
 ! D105  D(19,20,21,8)        -179.9983         estimate D2E/DX2                !
 ! D106  D(19,20,21,12)         -0.0016         estimate D2E/DX2                !
 ! D107  D(39,20,21,8)           0.004          estimate D2E/DX2                !
 ! D108  D(39,20,21,12)       -179.9993         estimate D2E/DX2                !
 ! D109  D(9,22,23,6)            0.0026         estimate D2E/DX2                !
 ! D110  D(9,22,23,24)         179.9999         estimate D2E/DX2                !
 ! D111  D(40,22,23,6)        -179.9997         estimate D2E/DX2                !
 ! D112  D(40,22,23,24)         -0.0025         estimate D2E/DX2                !
 ! D113  D(6,23,24,25)          -0.0016         estimate D2E/DX2                !
 ! D114  D(6,23,24,41)        -179.9971         estimate D2E/DX2                !
 ! D115  D(22,23,24,25)       -179.9988         estimate D2E/DX2                !
 ! D116  D(22,23,24,41)          0.0056         estimate D2E/DX2                !
 ! D117  D(23,24,25,4)           0.0013         estimate D2E/DX2                !
 ! D118  D(23,24,25,26)        179.998          estimate D2E/DX2                !
 ! D119  D(41,24,25,4)         179.9969         estimate D2E/DX2                !
 ! D120  D(41,24,25,26)         -0.0065         estimate D2E/DX2                !
 ! D121  D(4,25,26,1)           -0.0015         estimate D2E/DX2                !
 ! D122  D(4,25,26,42)        -179.9982         estimate D2E/DX2                !
 ! D123  D(24,25,26,1)        -179.9982         estimate D2E/DX2                !
 ! D124  D(24,25,26,42)          0.0052         estimate D2E/DX2                !
 --------------------------------------------------------------------------------
 Trust Radius=3.00D-01 FncErr=1.00D-07 GrdErr=1.00D-06 EigMax=2.50D+02 EigMin=1.00D-04
 Number of steps in this run=    252 maximum allowed number of steps=    252.
 GradGradGradGradGradGradGradGradGradGradGradGradGradGradGradGradGradGrad

                          Input orientation:                          
 ---------------------------------------------------------------------
 Center     Atomic      Atomic             Coordinates (Angstroms)
 Number     Number       Type             X           Y           Z
 ---------------------------------------------------------------------
      1          6           0        6.955800    0.610300    0.289100
      2          6           0        6.465900    1.868000    0.626700
      3          6           0        5.088700    2.089500    0.674900
      4          6           0        4.183700    1.054600    0.385600
      5          6           0        2.794700    1.260100    0.429400
      6          6           0        1.889000    0.224100    0.139800
      7          6           0        0.495800    0.426600    0.182700
      8          6           0       -0.444600   -0.597000   -0.103800
      9          6           0        0.086700   -1.864500   -0.443700
     10          6           0       -0.773700   -2.924600   -0.739400
     11          6           0       -2.154300   -2.754200   -0.705200
     12          6           0       -2.715900   -1.518700   -0.374200
     13          6           0       -4.115000   -1.382200   -0.349300
     14          6           0       -4.730900   -0.166400   -0.024200
     15          6           0       -6.129600   -0.031500    0.000300
     16          6           0       -6.723200    1.188400    0.326800
     17          6           0       -5.926400    2.286800    0.632300
     18          6           0       -4.536100    2.165200    0.611400
     19          6           0       -3.924200    0.942600    0.284400
     20          6           0       -2.523600    0.800200    0.257900
     21          6           0       -1.876200   -0.420000   -0.068200
     22          6           0        1.476500   -2.071400   -0.487800
     23          6           0        2.385000   -1.043600   -0.200500
     24          6           0        3.774300   -1.253800   -0.245500
     25          6           0        4.680500   -0.220500    0.043300
     26          6           0        6.069200   -0.427900   -0.000900
     27          1           0        8.027800    0.435600    0.250900
     28          1           0        7.154400    2.678000    0.852900
     29          1           0        4.725000    3.079500    0.940800
     30          1           0        2.411900    2.244200    0.693600
     31          1           0        0.145700    1.420000    0.449700
     32          1           0       -0.377300   -3.903300   -1.002100
     33          1           0       -2.789100   -3.605600   -0.942200
     34          1           0       -4.739700   -2.241400   -0.588400
     35          1           0       -6.768000   -0.879900   -0.235900
     36          1           0       -7.806000    1.279200    0.342000
     37          1           0       -6.384800    3.238700    0.887100
     38          1           0       -3.930100    3.035500    0.853300
     39          1           0       -1.930400    1.677300    0.501500
     40          1           0        1.860800   -3.055600   -0.752000
     41          1           0        4.156500   -2.238100   -0.509800
     42          1           0        6.471300   -1.404100   -0.262800
 ---------------------------------------------------------------------
                    Distance matrix (angstroms):
                    1          2          3          4          5
     1  C    0.000000
     2  C    1.391325   0.000000
     3  C    2.413076   1.395731   0.000000
     4  C    2.809137   2.434787   1.404898   0.000000
     5  C    4.213867   3.726416   2.451655   1.404802   0.000000
     6  C    5.083690   4.887483   3.742209   2.452712   1.406221
     7  C    6.463487   6.157667   4.909402   3.746486   2.457748
     8  C    7.508519   7.373253   6.200086   4.938467   3.771762
     9  C    7.337995   7.468032   6.473437   5.098460   4.225955
    10  C    8.561454   8.789030   7.842779   6.455654   5.622391
    11  C    9.762296   9.871501   8.821970   7.474426   6.472598
    12  C    9.925441   9.837530   8.662072   7.402949   6.223682
    13  C   11.266775  11.111787   9.889883   8.680236   7.438553
    14  C   11.716671  11.398719  10.099622   9.007157   7.673025
    15  C   13.104312  12.753317  11.436957  10.377487   9.027485
    16  C   13.691262  13.210002  11.851335  10.907879   9.518723
    17  C   12.995365  12.399376  11.016949  10.187900   8.783670
    18  C   11.601093  11.006024   9.625307   8.793141   7.388705
    19  C   10.885074  10.436844   9.093967   8.109305   6.727960
    20  C    9.481353   9.060205   7.731966   6.713337   5.340902
    21  C    8.899068   8.678045   7.440405   6.253221   4.988752
    22  C    6.149619   6.454076   5.631425   4.226539   3.698351
    23  C    4.885418   5.080888   4.229969   2.825116   2.423151
    24  C    3.725937   4.213203   3.708428   2.427881   2.781151
    25  C    2.434674   2.808886   2.429330   1.410624   2.428475
    26  C    1.395714   2.412967   2.784850   2.429465   3.709023
    27  H    1.086813   2.152331   3.399040   3.895948   5.300660
    28  H    2.152370   1.086876   2.155257   3.417434   4.603996
    29  H    3.390889   2.144090   1.087695   2.168288   2.701445
    30  H    4.845645   4.071967   2.681332   2.156221   1.088481
    31  H    6.859947   6.338530   4.993215   4.055006   2.653899
    32  H    8.707131   9.098916   8.282701   6.878169   6.226675
    33  H   10.688919  10.866314   9.854385   8.491199   7.532274
    34  H   12.070084  11.997046  10.814345   9.562393   8.370400
    35  H   13.814449  13.543675  12.256763  11.138594   9.821785
    36  H   14.777042  14.286878  12.924422  11.991883  10.601077
    37  H   13.610206  12.926218  11.532861  10.803471   9.401466
    38  H   11.167038  10.463805   9.070033   8.365193   6.968118
    39  H    8.952550   8.399399   7.033331   6.146821   4.744030
    40  H    6.362526   6.881104   6.239186   4.856310   4.570902
    41  H    4.072801   4.846134   4.582645   3.412382   3.869625
    42  H    2.144094   3.390852   3.872480   3.420342   4.592874
                    6          7          8          9         10
     6  C    0.000000
     7  C    1.408493   0.000000
     8  C    2.485807   1.419222   0.000000
     9  C    2.819753   2.410162   1.415757   0.000000
    10  C    4.216311   3.700330   2.435162   1.396975   0.000000
    11  C    5.092403   4.234251   2.817493   2.425290   1.391496
    12  C    4.950419   3.795965   2.466060   2.824708   2.425297
    13  C    6.234375   4.981391   3.761469   4.230344   3.700738
    14  C    6.633435   5.264300   4.308610   5.125309   4.876332
    15  C    8.023885   6.643723   5.714005   6.496107   6.132116
    16  C    8.668035   7.260514   6.541704   7.502573   7.310958
    17  C    8.098010   6.701279   6.237650   7.385692   7.455908
    18  C    6.728461   5.341023   4.988149   6.222700   6.471969
    19  C    5.859219   4.451179   3.824746   4.949471   5.092058
    20  C    4.451615   3.043355   2.530857   3.795594   4.234488
    21  C    3.825554   2.531021   1.442940   2.465879   2.817630
    22  C    2.415235   2.766107   2.451925   1.405808   2.419639
    23  C    1.403169   2.424336   2.866259   2.452592   3.715637
    24  C    2.426314   3.708863   4.272070   3.743078   4.870299
    25  C    2.828331   4.236730   5.141016   4.903356   6.137840
    26  C    4.233081   5.641513   6.516807   6.168484   7.321487
    27  H    6.143447   7.532314   8.542461   8.296626   9.473016
    28  H    5.852741   7.060802   8.329808   8.501051   9.837648
    29  H    4.103390   5.049626   6.429044   6.919090   8.313122
    30  H    2.158917   2.690005   4.107050   4.856071   6.238432
    31  H    2.136659   1.086601   2.173271   3.404348   4.597261
    32  H    4.845150   4.573192   3.426819   2.164212   1.088117
    33  H    6.141819   5.321147   3.905287   3.398552   2.136990
    34  H    7.109756   5.926490   4.624583   4.843256   4.027247
    35  H    8.735194   7.392223   6.331103   6.928169   6.353420
    36  H    9.754340   8.346987   7.609801   8.531992   8.264055
    37  H    8.837536   7.466374   7.140060   8.348293   8.492126
    38  H    6.501921   5.181183   5.124432   6.467371   6.929816
    39  H    4.102491   2.748150   2.783241   4.184070   4.904617
    40  H    3.398902   3.855205   3.432164   2.158981   2.637785
    41  H    3.409687   4.580492   4.901853   4.087446   4.983058
    42  H    4.879610   6.265503   6.964651   6.403734   7.418160
                   11         12         13         14         15
    11  C    0.000000
    12  C    1.396931   0.000000
    13  C    2.419379   1.405963   0.000000
    14  C    3.714746   2.451824   1.401140   0.000000
    15  C    4.869685   3.742374   2.450556   1.405404   0.000000
    16  C    6.122415   4.886537   3.723950   2.434737   1.395392
    17  C    6.436562   5.079585   4.207882   2.806849   2.411479
    18  C    5.622002   4.225595   3.699232   2.424519   2.781758
    19  C    4.216418   2.819883   2.417163   1.405660   2.427627
    20  C    3.701041   2.411188   2.768414   2.426122   3.709625
    21  C    2.435487   1.416289   2.452972   2.866280   4.271655
    22  C    3.700836   4.230201   5.635517   6.509667   7.890006
    23  C    4.877101   5.125922   6.510514   7.171931   8.576892
    24  C    6.132766   6.496879   7.891028   8.577286   9.982067
    25  C    7.327645   7.521061   8.880569   9.411798  10.811838
    26  C    8.575177   8.860428  10.234745  10.803290  12.205239
    27  H   10.712801  10.937876  12.292771  12.775857  14.167320
    28  H   10.889829  10.795410  12.038683  12.252358  13.584291
    29  H    9.168759   8.845319   9.985826  10.043960  11.330719
    30  H    6.913091   6.449337   7.539154   7.572702   8.866606
    31  H    4.903849   4.183721   5.161811   5.149997   6.456640
    32  H    2.136892   3.398474   4.555491   5.820184   7.006040
    33  H    1.088128   2.164055   2.655758   4.054801   4.982112
    34  H    2.638352   2.159616   1.088873   2.150354   2.676200
    35  H    5.001947   4.104474   2.702513   2.168796   1.087717
    36  H    7.021870   5.852376   4.602654   3.417616   2.155229
    37  H    7.506491   6.138775   5.294657   3.893656   3.397904
    38  H    6.253240   4.870501   4.582195   3.415179   3.869354
    39  H    4.598309   3.405624   3.854462   3.393875   4.561193
    40  H    4.026669   4.842621   6.218731   7.233787   8.576574
    41  H    6.334883   6.911281   8.317213   9.138579  10.532480
    42  H    8.741823   9.188590  10.586676  11.272893  12.678168
                   16         17         18         19         20
    16  C    0.000000
    17  C    1.390936   0.000000
    18  C    2.412165   1.395764   0.000000
    19  C    2.810092   2.436537   1.405739   0.000000
    20  C    4.218067   3.732185   2.457304   1.408070   0.000000
    21  C    5.122146   4.921543   3.770966   2.485017   1.419280
    22  C    8.861430   8.663225   7.436960   6.232820   4.980257
    23  C    9.392506   8.992469   7.671845   6.632203   5.263467
    24  C   10.793024  10.363878   9.026992   8.023208   6.643483
    25  C   11.493900  10.915118   9.537296   8.686299   7.279213
    26  C   12.898268  12.315233  10.934874  10.090972   8.683975
    27  H   14.770392  14.081623  12.687516  11.962795  10.557700
    28  H   13.967228  13.088508  11.704233  11.228098   9.876429
    29  H   11.619576  10.685311   9.311950   8.933413   7.629139
    30  H    9.203223   8.338634   6.948935   6.481340   5.160827
    31  H    6.873902   6.136374   4.743493   4.101137   2.747017
    32  H    8.243897   8.472373   7.531646   6.141525   5.321383
    33  H    6.330082   6.858723   6.226381   4.845526   4.574036
    34  H    4.066373   4.837661   4.571553   3.400688   3.857286
    35  H    2.143946   3.389698   3.869358   3.417516   4.591460
    36  H    1.086707   2.152308   3.398502   3.896792   5.304740
    37  H    2.152250   1.086815   2.155482   3.419046   4.609885
    38  H    3.389748   2.143503   1.087738   2.168850   2.707270
    39  H    4.820838   4.044331   2.653262   2.135920   1.086523
    40  H    9.636410   9.544528   8.368748   7.108161   5.925374
    41  H   11.437162  11.110535   9.808539   8.720397   7.378643
    42  H   13.459700  12.966376  11.604610  10.671122   9.275683
                   21         22         23         24         25
    21  C    0.000000
    22  C    3.760822   0.000000
    23  C    4.308620   1.401530   0.000000
    24  C    5.714439   2.450931   1.405832   0.000000
    25  C    6.560682   3.738116   2.450766   1.404391   0.000000
    26  C    7.945689   4.902148   3.740622   2.451225   1.404798
    27  H    9.946009   7.053386   5.850896   4.603558   3.417306
    28  H    9.591547   7.522820   6.140614   5.300058   3.895759
    29  H    7.539259   6.255032   4.876281   4.592236   3.420159
    30  H    5.105497   4.571114   3.407311   3.869631   3.412357
    31  H    2.782427   3.852247   3.392131   4.560619   4.839505
    32  H    3.905413   2.656490   4.055952   4.982778   6.343281
    33  H    3.427143   4.555831   5.821106   7.006752   8.259845
    34  H    3.433328   6.219338   7.235091   8.577944   9.655219
    35  H    4.916232   8.333961   9.154532  10.548933  11.470872
    36  H    6.182077   9.903529  10.466431  11.868639  12.579786
    37  H    5.884400   9.585799   9.819896  11.165691  11.624067
    38  H    4.124094   7.557136   7.591445   8.886126   9.241216
    39  H    2.173974   5.161243   5.149639   6.457008   6.893155
    40  H    4.623758   1.089100   2.151065   2.676660   4.076886
    41  H    6.316167   2.685270   2.158868   1.088475   2.156665
    42  H    8.407561   5.044199   4.102644   2.701240   2.168311
                   26         27         28         29         30
    26  C    0.000000
    27  H    2.155261   0.000000
    28  H    3.399007   2.480643   0.000000
    29  H    3.872406   4.286567   2.463922   0.000000
    30  H    4.582389   5.916532   4.764962   2.471693   0.000000
    31  H    6.221385   7.945821   7.132111   4.895417   2.423728
    32  H    7.391764   9.541581  10.172563   8.863849   6.960373
    33  H    9.457976  11.608622  11.898706  10.232202   7.996649
    34  H   10.975712  13.072100  12.951736  10.964989   8.538707
    35  H   12.847304  14.862140  14.411015  12.212720   9.741383
    36  H   13.984025  15.856519  15.034335  12.673816  10.269388
    37  H   13.012863  14.696434  13.550848  11.111070   8.854852
    38  H   10.616534  12.252091  11.090264   8.655654   6.393170
    39  H    8.287211  10.038444   9.146501   6.815680   4.383360
    40  H    5.017927   7.157246   7.966936   6.979159   5.520992
    41  H    2.682205   4.765952   5.917127   5.541146   4.958106
    42  H    1.087769   2.463955   4.286602   4.959928   5.541076
                   31         32         33         34         35
    31  H    0.000000
    32  H    5.542452   0.000000
    33  H    5.983903   2.430842   0.000000
    34  H    6.192789   4.686533   2.406461   0.000000
    35  H    7.318390   7.111192   4.874417   2.468185   0.000000
    36  H    7.953676   9.156992   7.118969   4.760511   2.464371
    37  H    6.793116   9.521938   7.944800   5.908887   4.286121
    38  H    4.402826   8.013229   6.973515   5.529885   4.956853
    39  H    2.092625   5.984649   5.543525   4.943304   5.521359
    40  H    4.941320   2.406291   4.686176   6.652540   8.913822
    41  H    5.512609   4.854955   7.092135   8.896548  11.012013
    42  H    6.963937   7.327748   9.542704  11.246938  13.249701
                   36         37         38         39         40
    36  H    0.000000
    37  H    2.481246   0.000000
    38  H    4.285863   2.463328   0.000000
    39  H    5.891231   4.735856   2.442800   0.000000
    40  H   10.650556  10.502132   8.556460   6.192318   0.000000
    41  H   12.497935  11.961006   9.749974   7.307765   2.448919
    42  H   14.539848  13.717039  11.364192   8.981522   4.921735
                   41         42
    41  H    0.000000
    42  H    2.472825   0.000000
 Stoichiometry    C26H16
 Framework group  CS[SG(C26H16)]
 Deg. of freedom    81
 Full point group                 CS      NOp   2
 Largest Abelian subgroup         CS      NOp   2
 Largest concise Abelian subgroup C1      NOp   1
                         Standard orientation:                         
 ---------------------------------------------------------------------
 Center     Atomic      Atomic             Coordinates (Angstroms)
 Number     Number       Type             X           Y           Z
 ---------------------------------------------------------------------
      1          6           0        1.388851    6.858710    0.000000
      2          6           0        0.000000    6.775776    0.000000
      3          6           0       -0.623525    5.527064    0.000000
      4          6           0        0.135344    4.344754    0.000000
      5          6           0       -0.475819    3.079863    0.000000
      6          6           0        0.283932    1.896547    0.000000
      7          6           0       -0.325482    0.626717    0.000000
      8          6           0        0.411800   -0.585969   -0.000000
      9          6           0        1.822504   -0.466460   -0.000000
     10          6           0        2.619395   -1.613850   -0.000000
     11          6           0        2.045478   -2.881478   -0.000000
     12          6           0        0.657543   -3.039754   -0.000000
     13          6           0        0.111736   -4.335450   -0.000000
     14          6           0       -1.272619   -4.551679   -0.000000
     15          6           0       -1.816732   -5.847480   -0.000000
     16          6           0       -3.198622   -6.041126   -0.000000
     17          6           0       -4.052083   -4.942805   -0.000000
     18          6           0       -3.523616   -3.650954   -0.000000
     19          6           0       -2.133700   -3.440634   -0.000000
     20          6           0       -1.581609   -2.145313   -0.000000
     21          6           0       -0.183633   -1.900326   -0.000000
     22          6           0        2.435269    0.798773   -0.000000
     23          6           0        1.684481    1.982245    0.000000
     24          6           0        2.300366    3.245989    0.000000
     25          6           0        1.543452    4.428949    0.000000
     26          6           0        2.156378    5.692982    0.000000
     27          1           0        1.876475    7.829990    0.000000
     28          1           0       -0.599761    7.682190    0.000000
     29          1           0       -1.710316    5.482740    0.000000
     30          1           0       -1.562394    3.015478    0.000000
     31          1           0       -1.411661    0.596442    0.000000
     32          1           0        3.704638   -1.534816   -0.000000
     33          1           0        2.701989   -3.749243   -0.000000
     34          1           0        0.778950   -5.195955   -0.000000
     35          1           0       -1.164252   -6.717765   -0.000000
     36          1           0       -3.606336   -7.048449   -0.000000
     37          1           0       -5.128976   -5.089329   -0.000000
     38          1           0       -4.207293   -2.804929   -0.000000
     39          1           0       -2.275766   -1.309444    0.000000
     40          1           0        3.522379    0.864563   -0.000000
     41          1           0        3.386973    3.309736    0.000000
     42          1           0        3.240801    5.778237    0.000000
 ---------------------------------------------------------------------
 Rotational constants (GHZ):           0.6155272           0.0884834           0.0773624
 Standard basis: def2SVPP (5D, 7F)
 There are   318 symmetry adapted cartesian basis functions of A'  symmetry.
 There are   104 symmetry adapted cartesian basis functions of A"  symmetry.
 There are   292 symmetry adapted basis functions of A'  symmetry.
 There are   104 symmetry adapted basis functions of A"  symmetry.
   396 basis functions,   714 primitive gaussians,   422 cartesian basis functions
    86 alpha electrons       86 beta electrons
       nuclear repulsion energy      1936.4911328601 Hartrees.
 NAtoms=   42 NActive=   42 NUniq=   42 SFac= 1.00D+00 NAtFMM=   60 NAOKFM=F Big=F
 Integral buffers will be    131072 words long.
 Raffenetti 2 integral format.
 Two-electron integral symmetry is turned on.
 Nuclear repulsion after empirical dispersion term =     1936.3823298920 Hartrees.
 One-electron integrals computed using PRISM.
   2 Symmetry operations used in ECPInt.
 ECPInt:  NShTT=   17766 NPrTT=   71262 LenC2=   14908 LenP2D=   39412.
 LDataN:  DoStor=T MaxTD1= 4 Len=   56
 NBasis=   396 RedAO= T EigKep=  2.02D-04  NBF=   292   104
 NBsUse=   396 1.00D-06 EigRej= -1.00D+00 NBFU=   292   104
 ExpMin= 1.22D-01 ExpMax= 1.24D+03 ExpMxC= 1.86D+02 IAcc=3 IRadAn=         5 AccDes= 0.00D+00
 Harris functional with IExCor=  402 and IRadAn=       5 diagonalized for initial guess.
 HarFok:  IExCor=  402 AccDes= 0.00D+00 IRadAn=         5 IDoV= 1 UseB2=F ITyADJ=14
 ICtDFT=  3500011 ScaDFX=  1.000000  1.000000  1.000000  1.000000
 FoFCou: FMM=F IPFlag=           0 FMFlag=      100000 FMFlg1=           0
         NFxFlg=           0 DoJE=T BraDBF=F KetDBF=T FulRan=T
         wScrn=  0.000000 ICntrl=       500 IOpCl=  0 I1Cent=   200000004 NGrid=           0
         NMat0=    1 NMatS0=      1 NMatT0=    0 NMatD0=    1 NMtDS0=    0 NMtDT0=    0
 Petite list used in FoFCou.
 Initial guess orbital symmetries:
       Occupied  (A') (A') (A') (A') (A') (A') (A') (A') (A') (A')
                 (A') (A') (A') (A') (A') (A') (A') (A') (A') (A')
                 (A') (A') (A') (A') (A') (A') (A') (A') (A') (A')
                 (A') (A') (A') (A') (A') (A') (A') (A') (A') (A')
                 (A') (A') (A') (A') (A') (A') (A') (A') (A') (A')
                 (A') (A') (A') (A') (A') (A') (A') (A') (A') (A')
                 (A') (A') (A') (A') (A') (A') (A") (A') (A") (A')
                 (A') (A") (A') (A') (A') (A") (A') (A") (A") (A")
                 (A") (A") (A") (A") (A") (A")
       Virtual   (A") (A") (A") (A") (A") (A") (A") (A") (A") (A")
                 (A') (A') (A') (A') (A') (A") (A') (A') (A') (A")
                 (A') (A') (A') (A') (A") (A') (A') (A') (A') (A')
                 (A') (A') (A') (A') (A') (A') (A') (A') (A') (A')
                 (A') (A') (A') (A') (A') (A') (A') (A') (A') (A')
                 (A') (A') (A') (A') (A') (A') (A') (A') (A') (A')
                 (A') (A') (A') (A') (A') (A') (A") (A') (A") (A')
                 (A') (A') (A') (A") (A") (A') (A") (A') (A') (A')
                 (A") (A') (A") (A') (A') (A') (A') (A") (A") (A')
                 (A") (A") (A') (A") (A") (A") (A") (A") (A') (A')
                 (A") (A') (A') (A') (A') (A') (A') (A') (A") (A')
                 (A') (A') (A') (A') (A") (A') (A') (A") (A') (A')
                 (A") (A') (A') (A') (A") (A') (A') (A') (A') (A')
                 (A') (A") (A') (A") (A') (A") (A') (A') (A') (A')
                 (A") (A') (A') (A') (A') (A') (A') (A') (A') (A')
                 (A') (A') (A') (A') (A') (A') (A') (A') (A') (A")
                 (A") (A") (A') (A") (A') (A") (A") (A') (A') (A')
                 (A') (A') (A') (A') (A") (A') (A") (A') (A") (A')
                 (A") (A") (A") (A') (A") (A") (A') (A") (A") (A')
                 (A") (A") (A") (A") (A") (A') (A') (A') (A') (A')
                 (A') (A') (A') (A') (A') (A') (A') (A') (A') (A")
                 (A') (A') (A') (A") (A') (A') (A') (A") (A') (A')
                 (A") (A') (A") (A') (A') (A') (A") (A") (A') (A')
                 (A') (A') (A") (A') (A') (A') (A') (A") (A') (A')
                 (A') (A') (A") (A') (A') (A") (A") (A') (A') (A")
                 (A') (A') (A") (A') (A") (A') (A") (A") (A") (A")
                 (A') (A") (A') (A") (A") (A") (A') (A") (A") (A')
                 (A') (A') (A') (A') (A') (A") (A") (A') (A') (A')
                 (A') (A') (A") (A') (A') (A") (A') (A") (A') (A')
                 (A") (A') (A') (A') (A') (A') (A') (A') (A') (A')
                 (A') (A') (A') (A') (A') (A') (A') (A') (A') (A')
 The electronic state of the initial guess is 1-A'.
 Requested convergence on RMS density matrix=1.00D-08 within 128 cycles.
 Requested convergence on MAX density matrix=1.00D-06.
 Requested convergence on             energy=1.00D-06.
 No special actions if energy rises.
 Integral accuracy reduced to 1.0D-05 until final iterations.
 Initial convergence to 1.0D-05 achieved.  Increase integral accuracy.
 SCF Done:  E(RB3LYP) =  -999.800125624     A.U. after   15 cycles
            NFock= 15  Conv=0.59D-08     -V/T= 2.0102

 **********************************************************************

            Population analysis using the SCF Density.

 **********************************************************************

 Orbital symmetries:
       Occupied  (A') (A') (A') (A') (A') (A') (A') (A') (A') (A')
                 (A') (A') (A') (A') (A') (A') (A') (A') (A') (A')
                 (A') (A') (A') (A') (A') (A') (A') (A') (A') (A')
                 (A') (A') (A') (A') (A') (A') (A') (A') (A') (A')
                 (A') (A') (A') (A') (A') (A') (A') (A') (A') (A')
                 (A') (A') (A') (A') (A') (A') (A') (A') (A') (A')
                 (A') (A') (A") (A') (A') (A') (A") (A') (A') (A")
                 (A') (A') (A") (A') (A') (A') (A') (A") (A") (A")
                 (A") (A") (A") (A") (A") (A")
       Virtual   (A") (A") (A") (A") (A") (A") (A") (A") (A') (A')
                 (A') (A") (A') (A') (A') (A') (A') (A') (A") (A')
                 (A') (A') (A') (A") (A') (A') (A") (A') (A') (A")
                 (A') (A') (A') (A') (A') (A') (A') (A') (A') (A')
                 (A') (A') (A') (A') (A') (A') (A') (A') (A') (A')
                 (A') (A') (A') (A') (A') (A') (A') (A') (A') (A')
                 (A') (A') (A') (A") (A') (A') (A") (A') (A') (A")
                 (A') (A') (A') (A") (A') (A") (A') (A') (A") (A')
                 (A") (A') (A') (A') (A') (A") (A') (A') (A") (A")
                 (A") (A") (A') (A") (A") (A') (A") (A") (A") (A')
                 (A') (A") (A') (A') (A') (A') (A') (A") (A') (A')
                 (A') (A') (A") (A') (A") (A') (A') (A") (A') (A')
                 (A') (A') (A') (A') (A') (A") (A') (A') (A") (A')
                 (A") (A') (A') (A') (A') (A') (A') (A') (A") (A')
                 (A') (A') (A') (A') (A') (A') (A') (A') (A') (A')
                 (A') (A') (A') (A') (A') (A') (A') (A') (A') (A')
                 (A") (A") (A') (A") (A') (A") (A') (A") (A") (A')
                 (A') (A') (A') (A') (A') (A') (A") (A') (A") (A')
                 (A") (A") (A") (A") (A') (A") (A') (A") (A") (A')
                 (A") (A") (A') (A") (A") (A") (A") (A') (A') (A')
                 (A') (A') (A') (A') (A') (A') (A') (A') (A") (A')
                 (A') (A') (A") (A') (A') (A') (A") (A') (A') (A")
                 (A') (A") (A') (A') (A') (A') (A") (A") (A') (A')
                 (A') (A") (A') (A') (A') (A') (A') (A") (A') (A')
                 (A') (A') (A") (A') (A') (A") (A") (A') (A") (A')
                 (A') (A') (A") (A") (A') (A') (A") (A") (A") (A")
                 (A") (A') (A") (A') (A") (A") (A") (A') (A") (A')
                 (A') (A') (A') (A') (A") (A') (A") (A') (A') (A')
                 (A') (A") (A') (A") (A') (A') (A") (A') (A") (A')
                 (A') (A') (A') (A') (A') (A') (A') (A') (A') (A')
                 (A') (A') (A') (A') (A') (A') (A') (A') (A') (A')
 The electronic state is 1-A'.
 Alpha  occ. eigenvalues --  -10.20336 -10.20305 -10.19681 -10.19633 -10.19621
 Alpha  occ. eigenvalues --  -10.19620 -10.19614 -10.19588 -10.19494 -10.19462
 Alpha  occ. eigenvalues --  -10.19397 -10.19377 -10.19168 -10.19125 -10.19074
 Alpha  occ. eigenvalues --  -10.19060 -10.19058 -10.19056 -10.19027 -10.19021
 Alpha  occ. eigenvalues --  -10.19004 -10.19001 -10.19000 -10.18992 -10.18945
 Alpha  occ. eigenvalues --  -10.18905  -0.89232  -0.88086  -0.86322  -0.83921
 Alpha  occ. eigenvalues --   -0.80781  -0.79097  -0.77932  -0.77082  -0.75787
 Alpha  occ. eigenvalues --   -0.74515  -0.73210  -0.70280  -0.68939  -0.66147
 Alpha  occ. eigenvalues --   -0.64562  -0.61542  -0.61421  -0.60774  -0.60201
 Alpha  occ. eigenvalues --   -0.59203  -0.56622  -0.53930  -0.53103  -0.52451
 Alpha  occ. eigenvalues --   -0.50496  -0.49660  -0.49001  -0.46962  -0.46281
 Alpha  occ. eigenvalues --   -0.45918  -0.45468  -0.44316  -0.43973  -0.42868
 Alpha  occ. eigenvalues --   -0.42597  -0.42127  -0.42034  -0.41572  -0.40973
 Alpha  occ. eigenvalues --   -0.40820  -0.40599  -0.39674  -0.38419  -0.38419
 Alpha  occ. eigenvalues --   -0.37052  -0.36011  -0.35495  -0.34897  -0.34391
 Alpha  occ. eigenvalues --   -0.33578  -0.33259  -0.32078  -0.31259  -0.29986
 Alpha  occ. eigenvalues --   -0.28257  -0.27299  -0.25540  -0.24067  -0.20277
 Alpha  occ. eigenvalues --   -0.18545
 Alpha virt. eigenvalues --   -0.08824  -0.07043  -0.02855  -0.01384   0.00328
 Alpha virt. eigenvalues --    0.01620   0.02613   0.04459   0.06308   0.06581
 Alpha virt. eigenvalues --    0.06592   0.06683   0.07782   0.07968   0.09409
 Alpha virt. eigenvalues --    0.09737   0.11155   0.11680   0.12188   0.12872
 Alpha virt. eigenvalues --    0.13197   0.14310   0.14781   0.16733   0.16979
 Alpha virt. eigenvalues --    0.17346   0.19693   0.21142   0.21802   0.22325
 Alpha virt. eigenvalues --    0.23514   0.24357   0.26081   0.26720   0.26935
 Alpha virt. eigenvalues --    0.27313   0.27818   0.28027   0.28542   0.28915
 Alpha virt. eigenvalues --    0.29771   0.29998   0.31011   0.31444   0.31577
 Alpha virt. eigenvalues --    0.32384   0.32895   0.33874   0.34457   0.35310
 Alpha virt. eigenvalues --    0.35407   0.36040   0.36430   0.36956   0.37739
 Alpha virt. eigenvalues --    0.38803   0.39018   0.39059   0.39625   0.41559
 Alpha virt. eigenvalues --    0.42140   0.42874   0.43262   0.44332   0.44449
 Alpha virt. eigenvalues --    0.44898   0.45366   0.45441   0.45820   0.46721
 Alpha virt. eigenvalues --    0.46799   0.46957   0.47621   0.47984   0.48011
 Alpha virt. eigenvalues --    0.48406   0.48672   0.49539   0.49774   0.50187
 Alpha virt. eigenvalues --    0.50769   0.51126   0.51698   0.51800   0.52283
 Alpha virt. eigenvalues --    0.52754   0.52889   0.53524   0.53740   0.55379
 Alpha virt. eigenvalues --    0.56101   0.57498   0.57965   0.58030   0.59089
 Alpha virt. eigenvalues --    0.60592   0.60875   0.62417   0.63412   0.64519
 Alpha virt. eigenvalues --    0.65672   0.66081   0.66293   0.66987   0.67145
 Alpha virt. eigenvalues --    0.67557   0.67792   0.68414   0.68893   0.69082
 Alpha virt. eigenvalues --    0.69113   0.69706   0.69833   0.70340   0.70735
 Alpha virt. eigenvalues --    0.70912   0.72132   0.72418   0.72958   0.73326
 Alpha virt. eigenvalues --    0.73718   0.74058   0.74961   0.76031   0.76805
 Alpha virt. eigenvalues --    0.76912   0.77051   0.77717   0.78057   0.78760
 Alpha virt. eigenvalues --    0.79294   0.79620   0.79968   0.80254   0.81139
 Alpha virt. eigenvalues --    0.81814   0.82705   0.83317   0.83362   0.84190
 Alpha virt. eigenvalues --    0.84764   0.86092   0.88551   0.89508   0.90059
 Alpha virt. eigenvalues --    0.91309   0.93153   0.93799   0.99444   1.00991
 Alpha virt. eigenvalues --    1.03828   1.08958   1.10080   1.11808   1.12631
 Alpha virt. eigenvalues --    1.13599   1.15378   1.17633   1.18112   1.20264
 Alpha virt. eigenvalues --    1.20821   1.21577   1.21593   1.22964   1.23319
 Alpha virt. eigenvalues --    1.23715   1.25026   1.25351   1.26033   1.27146
 Alpha virt. eigenvalues --    1.28142   1.28208   1.28558   1.29216   1.31169
 Alpha virt. eigenvalues --    1.32721   1.34306   1.34789   1.36937   1.38160
 Alpha virt. eigenvalues --    1.38364   1.38724   1.39823   1.40960   1.40989
 Alpha virt. eigenvalues --    1.41991   1.42950   1.43766   1.45928   1.46582
 Alpha virt. eigenvalues --    1.46921   1.47552   1.48755   1.49179   1.49255
 Alpha virt. eigenvalues --    1.49295   1.49514   1.50201   1.51403   1.51983
 Alpha virt. eigenvalues --    1.57551   1.67634   1.69132   1.70968   1.71944
 Alpha virt. eigenvalues --    1.72485   1.74242   1.74467   1.75203   1.76374
 Alpha virt. eigenvalues --    1.80867   1.81517   1.81845   1.83129   1.83340
 Alpha virt. eigenvalues --    1.83552   1.84249   1.85504   1.85992   1.86212
 Alpha virt. eigenvalues --    1.86853   1.87054   1.87577   1.88558   1.89752
 Alpha virt. eigenvalues --    1.90278   1.90606   1.94016   1.95352   1.96102
 Alpha virt. eigenvalues --    1.98871   2.00058   2.00777   2.03111   2.04394
 Alpha virt. eigenvalues --    2.06166   2.07190   2.07549   2.09091   2.09667
 Alpha virt. eigenvalues --    2.10935   2.13359   2.13770   2.15474   2.18522
 Alpha virt. eigenvalues --    2.18591   2.18871   2.19744   2.20322   2.20547
 Alpha virt. eigenvalues --    2.21939   2.23354   2.24267   2.26333   2.26708
 Alpha virt. eigenvalues --    2.26973   2.27636   2.27874   2.28875   2.30714
 Alpha virt. eigenvalues --    2.32413   2.32614   2.33241   2.34018   2.34141
 Alpha virt. eigenvalues --    2.35715   2.38273   2.39243   2.41439   2.47492
 Alpha virt. eigenvalues --    2.47895   2.48682   2.53286   2.54345   2.57221
 Alpha virt. eigenvalues --    2.57735   2.59227   2.61076   2.61453   2.62588
 Alpha virt. eigenvalues --    2.63460   2.64347   2.64554   2.66559   2.66807
 Alpha virt. eigenvalues --    2.67852   2.68443   2.69016   2.70155   2.70483
 Alpha virt. eigenvalues --    2.71581   2.73493   2.74769   2.80654   2.82076
 Alpha virt. eigenvalues --    2.86609   2.88047   2.88957   2.90052   2.92367
 Alpha virt. eigenvalues --    2.94945   2.97640   3.02900   3.08856   3.26388
 Alpha virt. eigenvalues --    3.29864   3.41052   3.45486   3.50082   3.53917
          Condensed to atoms (all electrons):
               1          2          3          4          5          6
     1  C    5.241682   0.137474   0.146959  -0.156993  -0.002291   0.000310
     2  C    0.137474   5.242200   0.226728   0.143209   0.019782  -0.001310
     3  C    0.146959   0.226728   5.460324   0.200563  -0.159243   0.018915
     4  C   -0.156993   0.143209   0.200563   5.424009   0.227209   0.142880
     5  C   -0.002291   0.019782  -0.159243   0.227209   5.735619   0.221626
     6  C    0.000310  -0.001310   0.018915   0.142880   0.221626   5.394288
     7  C   -0.000005   0.000016  -0.000967   0.020479  -0.158210   0.231855
     8  C    0.000000  -0.000000   0.000007  -0.001239   0.018372   0.119059
     9  C   -0.000000   0.000000  -0.000004   0.000259  -0.001667  -0.147901
    10  C   -0.000000   0.000000   0.000000  -0.000003   0.000093  -0.001505
    11  C    0.000000  -0.000000  -0.000000   0.000000  -0.000005   0.000047
    12  C    0.000000  -0.000000   0.000000  -0.000000   0.000012   0.000598
    13  C   -0.000000   0.000000  -0.000000  -0.000000   0.000000   0.000000
    14  C    0.000000  -0.000000   0.000000   0.000000  -0.000000   0.000005
    15  C    0.000000  -0.000000   0.000000  -0.000000   0.000000   0.000000
    16  C   -0.000000   0.000000  -0.000000   0.000000  -0.000000  -0.000000
    17  C    0.000000  -0.000000   0.000000  -0.000000   0.000000   0.000000
    18  C   -0.000000   0.000000  -0.000000  -0.000000  -0.000000  -0.000001
    19  C   -0.000000   0.000000  -0.000000   0.000000  -0.000001  -0.000127
    20  C   -0.000000   0.000000  -0.000000   0.000001  -0.000060   0.000069
    21  C    0.000000  -0.000000   0.000000   0.000000  -0.000528   0.022948
    22  C    0.000016  -0.000005   0.000111  -0.001631   0.024942   0.034152
    23  C   -0.001330   0.000302  -0.001404  -0.136315   0.033099  -0.053762
    24  C    0.019811  -0.002257   0.025477   0.029019  -0.145343   0.033505
    25  C    0.143244  -0.157148   0.045433  -0.030180   0.027776  -0.134101
    26  C    0.226580   0.147009  -0.175972   0.045312   0.025731  -0.001620
    27  H    0.436346  -0.084874   0.015129  -0.001431   0.000044  -0.000001
    28  H   -0.084840   0.436337  -0.076815   0.015774  -0.000495   0.000009
    29  H    0.015484  -0.081093   0.437452  -0.079052  -0.022039   0.000779
    30  H   -0.000028   0.000591  -0.018469  -0.083321   0.436270  -0.079951
    31  H   -0.000000   0.000001  -0.000040   0.000609  -0.019001  -0.083857
    32  H    0.000000   0.000000   0.000000  -0.000000   0.000001  -0.000013
    33  H    0.000000  -0.000000   0.000000   0.000000   0.000000  -0.000002
    34  H   -0.000000  -0.000000   0.000000  -0.000000   0.000000  -0.000000
    35  H    0.000000  -0.000000   0.000000  -0.000000   0.000000   0.000000
    36  H    0.000000   0.000000   0.000000  -0.000000  -0.000000   0.000000
    37  H   -0.000000   0.000000  -0.000000   0.000000   0.000000  -0.000000
    38  H   -0.000000   0.000000  -0.000000   0.000000   0.000000  -0.000000
    39  H    0.000000  -0.000000   0.000000   0.000002  -0.000050   0.001618
    40  H    0.000000  -0.000000   0.000000   0.000002  -0.000418   0.019171
    41  H    0.000598  -0.000027  -0.000312   0.017995  -0.002327   0.018499
    42  H   -0.081176   0.015481  -0.002061   0.017531  -0.000328  -0.000015
               7          8          9         10         11         12
     1  C   -0.000005   0.000000  -0.000000  -0.000000   0.000000   0.000000
     2  C    0.000016  -0.000000   0.000000   0.000000  -0.000000  -0.000000
     3  C   -0.000967   0.000007  -0.000004   0.000000  -0.000000   0.000000
     4  C    0.020479  -0.001239   0.000259  -0.000003   0.000000  -0.000000
     5  C   -0.158210   0.018372  -0.001667   0.000093  -0.000005   0.000012
     6  C    0.231855   0.119059  -0.147901  -0.001505   0.000047   0.000598
     7  C    5.714472   0.297349   0.008953   0.025998  -0.003507   0.022846
     8  C    0.297349   5.545799   0.028669   0.031086  -0.137362   0.009695
     9  C    0.008953   0.028669   5.507380   0.133346   0.160322  -0.176919
    10  C    0.025998   0.031086   0.133346   5.535498   0.184957   0.160611
    11  C   -0.003507  -0.137362   0.160322   0.184957   5.538452   0.131636
    12  C    0.022846   0.009695  -0.176919   0.160611   0.131636   5.500195
    13  C   -0.000359   0.024621  -0.000976   0.020093  -0.162258   0.239974
    14  C    0.000061  -0.003266  -0.000092  -0.001524   0.022622   0.151077
    15  C    0.000001   0.000120  -0.000006   0.000018  -0.001059   0.018988
    16  C   -0.000000  -0.000004   0.000000  -0.000000   0.000018  -0.001317
    17  C    0.000001   0.000005  -0.000000   0.000000  -0.000005   0.000326
    18  C   -0.000056  -0.000558   0.000012  -0.000005   0.000095  -0.001852
    19  C    0.000066   0.023115   0.000575   0.000061  -0.001625  -0.147778
    20  C   -0.030840  -0.151637   0.022919  -0.003524   0.025939   0.008748
    21  C   -0.151086   0.194537   0.010011  -0.138293   0.030823   0.041666
    22  C   -0.146248   0.032737   0.241242  -0.161535   0.019988  -0.000970
    23  C    0.023234  -0.132163   0.152192   0.022467  -0.001504  -0.000105
    24  C    0.025116  -0.001237   0.020129  -0.001072   0.000019  -0.000006
    25  C   -0.001833   0.000217  -0.001451   0.000015  -0.000000   0.000000
    26  C    0.000108  -0.000003   0.000013  -0.000000  -0.000000  -0.000000
    27  H    0.000000   0.000000  -0.000000  -0.000000   0.000000  -0.000000
    28  H   -0.000000  -0.000000   0.000000   0.000000  -0.000000   0.000000
    29  H   -0.000047   0.000000  -0.000000   0.000000  -0.000000   0.000000
    30  H   -0.021470   0.000591   0.000012   0.000001  -0.000000   0.000000
    31  H    0.415808  -0.051649   0.019199  -0.000290  -0.000022  -0.001331
    32  H   -0.000375   0.015943  -0.088167   0.444571  -0.080043   0.016868
    33  H    0.000060  -0.001597   0.016870  -0.079790   0.444422  -0.088341
    34  H    0.000011  -0.000170  -0.000088   0.001192  -0.020874  -0.084116
    35  H    0.000000   0.000000  -0.000000   0.000001  -0.000046   0.000722
    36  H    0.000000   0.000000  -0.000000   0.000000  -0.000000   0.000009
    37  H   -0.000000   0.000000   0.000000  -0.000000   0.000000  -0.000002
    38  H    0.000004  -0.000039   0.000000  -0.000000   0.000001  -0.000007
    39  H    0.011832  -0.039895  -0.001358  -0.000021  -0.000288   0.019219
    40  H   -0.002552   0.017321  -0.084798  -0.020633   0.001180  -0.000084
    41  H   -0.000365  -0.000001   0.000715  -0.000044   0.000001  -0.000000
    42  H    0.000001  -0.000000   0.000000   0.000000   0.000000   0.000000
              13         14         15         16         17         18
     1  C   -0.000000   0.000000   0.000000  -0.000000   0.000000  -0.000000
     2  C    0.000000  -0.000000  -0.000000   0.000000  -0.000000   0.000000
     3  C   -0.000000   0.000000   0.000000  -0.000000   0.000000  -0.000000
     4  C   -0.000000   0.000000  -0.000000   0.000000  -0.000000  -0.000000
     5  C    0.000000  -0.000000   0.000000  -0.000000   0.000000  -0.000000
     6  C    0.000000   0.000005   0.000000  -0.000000   0.000000  -0.000001
     7  C   -0.000359   0.000061   0.000001  -0.000000   0.000001  -0.000056
     8  C    0.024621  -0.003266   0.000120  -0.000004   0.000005  -0.000558
     9  C   -0.000976  -0.000092  -0.000006   0.000000  -0.000000   0.000012
    10  C    0.020093  -0.001524   0.000018  -0.000000   0.000000  -0.000005
    11  C   -0.162258   0.022622  -0.001059   0.000018  -0.000005   0.000095
    12  C    0.239974   0.151077   0.018988  -0.001317   0.000326  -0.001852
    13  C    5.746836   0.191603  -0.163584   0.020352  -0.002308   0.026347
    14  C    0.191603   5.454377   0.204200   0.146132  -0.161160   0.045639
    15  C   -0.163584   0.204200   5.470558   0.217081   0.148066  -0.176970
    16  C    0.020352   0.146132   0.217081   5.238235   0.147635   0.147467
    17  C   -0.002308  -0.161160   0.148066   0.147635   5.236860   0.221590
    18  C    0.026347   0.045639  -0.176970   0.147467   0.221590   5.459789
    19  C    0.029933  -0.030150   0.046554  -0.158816   0.143581   0.211397
    20  C   -0.142458   0.019512   0.026231  -0.002415   0.020025  -0.154856
    21  C    0.032800  -0.132502  -0.001336   0.000264  -0.001106   0.017413
    22  C    0.000068  -0.000001  -0.000000   0.000000  -0.000000   0.000000
    23  C   -0.000001  -0.000000   0.000000  -0.000000   0.000000   0.000000
    24  C   -0.000000   0.000000  -0.000000   0.000000  -0.000000   0.000000
    25  C    0.000000  -0.000000   0.000000  -0.000000   0.000000  -0.000000
    26  C   -0.000000  -0.000000  -0.000000   0.000000  -0.000000   0.000000
    27  H    0.000000  -0.000000   0.000000   0.000000   0.000000   0.000000
    28  H   -0.000000   0.000000  -0.000000   0.000000  -0.000000  -0.000000
    29  H   -0.000000   0.000000   0.000000  -0.000000  -0.000000  -0.000000
    30  H   -0.000000  -0.000000   0.000000   0.000000   0.000000   0.000000
    31  H    0.000028  -0.000031  -0.000000  -0.000000   0.000001  -0.000041
    32  H   -0.000606   0.000014  -0.000000   0.000000   0.000000   0.000000
    33  H   -0.021329   0.001272  -0.000060   0.000000  -0.000000   0.000001
    34  H    0.442187  -0.084192  -0.019007   0.000556  -0.000022  -0.000347
    35  H   -0.022387  -0.078769   0.437296  -0.081882   0.015560  -0.002089
    36  H   -0.000504   0.015686  -0.077136   0.436325  -0.084586   0.015142
    37  H    0.000047  -0.001354   0.015092  -0.084658   0.436345  -0.076920
    38  H   -0.000349   0.018241  -0.002065   0.015428  -0.081411   0.434212
    39  H   -0.002156   0.018638  -0.000370  -0.000010   0.000480  -0.018061
    40  H   -0.000001   0.000000  -0.000000   0.000000  -0.000000   0.000000
    41  H    0.000000  -0.000000  -0.000000   0.000000  -0.000000   0.000000
    42  H   -0.000000  -0.000000   0.000000   0.000000   0.000000   0.000000
              19         20         21         22         23         24
     1  C   -0.000000  -0.000000   0.000000   0.000016  -0.001330   0.019811
     2  C    0.000000   0.000000  -0.000000  -0.000005   0.000302  -0.002257
     3  C   -0.000000  -0.000000   0.000000   0.000111  -0.001404   0.025477
     4  C    0.000000   0.000001   0.000000  -0.001631  -0.136315   0.029019
     5  C   -0.000001  -0.000060  -0.000528   0.024942   0.033099  -0.145343
     6  C   -0.000127   0.000069   0.022948   0.034152  -0.053762   0.033505
     7  C    0.000066  -0.030840  -0.151086  -0.146248   0.023234   0.025116
     8  C    0.023115  -0.151637   0.194537   0.032737  -0.132163  -0.001237
     9  C    0.000575   0.022919   0.010011   0.241242   0.152192   0.020129
    10  C    0.000061  -0.003524  -0.138293  -0.161535   0.022467  -0.001072
    11  C   -0.001625   0.025939   0.030823   0.019988  -0.001504   0.000019
    12  C   -0.147778   0.008748   0.041666  -0.000970  -0.000105  -0.000006
    13  C    0.029933  -0.142458   0.032800   0.000068  -0.000001  -0.000000
    14  C   -0.030150   0.019512  -0.132502  -0.000001  -0.000000   0.000000
    15  C    0.046554   0.026231  -0.001336  -0.000000   0.000000  -0.000000
    16  C   -0.158816  -0.002415   0.000264   0.000000  -0.000000   0.000000
    17  C    0.143581   0.020025  -0.001106  -0.000000   0.000000  -0.000000
    18  C    0.211397  -0.154856   0.017413   0.000000   0.000000   0.000000
    19  C    5.405146   0.245337   0.118369   0.000000   0.000005  -0.000000
    20  C    0.245337   5.698001   0.295410  -0.000368   0.000070   0.000001
    21  C    0.118369   0.295410   5.536909   0.024726  -0.003198   0.000123
    22  C    0.000000  -0.000368   0.024726   5.764526   0.177679  -0.167575
    23  C    0.000005   0.000070  -0.003198   0.177679   5.446213   0.212735
    24  C   -0.000000   0.000001   0.000123  -0.167575   0.212735   5.748095
    25  C   -0.000000  -0.000000  -0.000003   0.020949   0.146133   0.222901
    26  C    0.000000   0.000000   0.000000  -0.000945   0.018934  -0.159576
    27  H    0.000000   0.000000   0.000000  -0.000000   0.000009  -0.000494
    28  H    0.000000  -0.000000  -0.000000   0.000000  -0.000001   0.000044
    29  H   -0.000000  -0.000000   0.000000   0.000001  -0.000012  -0.000331
    30  H   -0.000000   0.000007  -0.000045  -0.000395   0.018562  -0.002289
    31  H    0.001536   0.011809  -0.039481  -0.002096   0.018548  -0.000448
    32  H   -0.000002   0.000061  -0.001602  -0.021509   0.001297  -0.000067
    33  H   -0.000023  -0.000369   0.015900  -0.000607   0.000013  -0.000000
    34  H    0.019140  -0.002588   0.017276  -0.000001   0.000000  -0.000000
    35  H    0.018030  -0.000323  -0.000010   0.000000  -0.000000  -0.000000
    36  H   -0.001402   0.000047  -0.000001   0.000000  -0.000000  -0.000000
    37  H    0.015766  -0.000517   0.000006  -0.000000  -0.000000   0.000000
    38  H   -0.076221  -0.023430   0.000541   0.000000  -0.000000   0.000000
    39  H   -0.083365   0.414338  -0.050670   0.000026  -0.000028  -0.000000
    40  H   -0.000000   0.000011  -0.000174   0.443275  -0.084467  -0.020225
    41  H    0.000000   0.000000   0.000000  -0.020755  -0.082305   0.439377
    42  H   -0.000000   0.000000   0.000000  -0.000046   0.000796  -0.021977
              25         26         27         28         29         30
     1  C    0.143244   0.226580   0.436346  -0.084840   0.015484  -0.000028
     2  C   -0.157148   0.147009  -0.084874   0.436337  -0.081093   0.000591
     3  C    0.045433  -0.175972   0.015129  -0.076815   0.437452  -0.018469
     4  C   -0.030180   0.045312  -0.001431   0.015774  -0.079052  -0.083321
     5  C    0.027776   0.025731   0.000044  -0.000495  -0.022039   0.436270
     6  C   -0.134101  -0.001620  -0.000001   0.000009   0.000779  -0.079951
     7  C   -0.001833   0.000108   0.000000  -0.000000  -0.000047  -0.021470
     8  C    0.000217  -0.000003   0.000000  -0.000000   0.000000   0.000591
     9  C   -0.001451   0.000013  -0.000000   0.000000  -0.000000   0.000012
    10  C    0.000015  -0.000000  -0.000000   0.000000   0.000000   0.000001
    11  C   -0.000000  -0.000000   0.000000  -0.000000  -0.000000  -0.000000
    12  C    0.000000  -0.000000  -0.000000   0.000000   0.000000   0.000000
    13  C    0.000000  -0.000000   0.000000  -0.000000  -0.000000  -0.000000
    14  C   -0.000000  -0.000000  -0.000000   0.000000   0.000000  -0.000000
    15  C    0.000000  -0.000000   0.000000  -0.000000   0.000000   0.000000
    16  C   -0.000000   0.000000   0.000000   0.000000  -0.000000   0.000000
    17  C    0.000000  -0.000000   0.000000  -0.000000  -0.000000   0.000000
    18  C   -0.000000   0.000000   0.000000  -0.000000  -0.000000   0.000000
    19  C   -0.000000   0.000000   0.000000   0.000000  -0.000000  -0.000000
    20  C   -0.000000   0.000000   0.000000  -0.000000  -0.000000   0.000007
    21  C   -0.000003   0.000000   0.000000  -0.000000   0.000000  -0.000045
    22  C    0.020949  -0.000945  -0.000000   0.000000   0.000001  -0.000395
    23  C    0.146133   0.018934   0.000009  -0.000001  -0.000012   0.018562
    24  C    0.222901  -0.159576  -0.000494   0.000044  -0.000331  -0.002289
    25  C    5.428105   0.200144   0.015765  -0.001425   0.017557   0.017837
    26  C    0.200144   5.460899  -0.076807   0.015119  -0.002069  -0.000302
    27  H    0.015765  -0.076807   0.669050  -0.012415  -0.000315  -0.000001
    28  H   -0.001425   0.015119  -0.012415   0.669102  -0.012452  -0.000014
    29  H    0.017557  -0.002069  -0.000315  -0.012452   0.677489   0.007538
    30  H    0.017837  -0.000302  -0.000001  -0.000014   0.007538   0.684786
    31  H    0.000019   0.000001   0.000000  -0.000000  -0.000003   0.009387
    32  H    0.000000   0.000000  -0.000000   0.000000  -0.000000   0.000000
    33  H   -0.000000  -0.000000  -0.000000   0.000000  -0.000000   0.000000
    34  H    0.000000   0.000000  -0.000000   0.000000   0.000000   0.000000
    35  H    0.000000  -0.000000   0.000000   0.000000   0.000000  -0.000000
    36  H    0.000000  -0.000000   0.000000   0.000000   0.000000  -0.000000
    37  H   -0.000000   0.000000   0.000000   0.000000   0.000000  -0.000000
    38  H    0.000000   0.000000   0.000000   0.000000  -0.000000   0.000000
    39  H   -0.000000  -0.000000  -0.000000   0.000000   0.000000  -0.000025
    40  H    0.000707  -0.000041  -0.000000   0.000000   0.000000   0.000013
    41  H   -0.083881  -0.018535  -0.000014  -0.000001   0.000012   0.000035
    42  H   -0.079041   0.437582  -0.012439  -0.000316   0.000036   0.000012
              31         32         33         34         35         36
     1  C   -0.000000   0.000000   0.000000  -0.000000   0.000000   0.000000
     2  C    0.000001   0.000000  -0.000000  -0.000000  -0.000000   0.000000
     3  C   -0.000040   0.000000   0.000000   0.000000   0.000000   0.000000
     4  C    0.000609  -0.000000   0.000000  -0.000000  -0.000000  -0.000000
     5  C   -0.019001   0.000001   0.000000   0.000000   0.000000  -0.000000
     6  C   -0.083857  -0.000013  -0.000002  -0.000000   0.000000   0.000000
     7  C    0.415808  -0.000375   0.000060   0.000011   0.000000   0.000000
     8  C   -0.051649   0.015943  -0.001597  -0.000170   0.000000   0.000000
     9  C    0.019199  -0.088167   0.016870  -0.000088  -0.000000  -0.000000
    10  C   -0.000290   0.444571  -0.079790   0.001192   0.000001   0.000000
    11  C   -0.000022  -0.080043   0.444422  -0.020874  -0.000046  -0.000000
    12  C   -0.001331   0.016868  -0.088341  -0.084116   0.000722   0.000009
    13  C    0.000028  -0.000606  -0.021329   0.442187  -0.022387  -0.000504
    14  C   -0.000031   0.000014   0.001272  -0.084192  -0.078769   0.015686
    15  C   -0.000000  -0.000000  -0.000060  -0.019007   0.437296  -0.077136
    16  C   -0.000000   0.000000   0.000000   0.000556  -0.081882   0.436325
[...]
 00000290,0.00000617,-0.00002090,-0.00001296,0.00002781,0.00002300,0.00
 003675,-0.00000535,0.00008019,-0.00013501,-0.00036679,-0.00019845,0.00
 011915,0.00100482,-0.00197292,0.00436053,0.00022876,0.00017773,-0.0004
 8603,0.00013106,-0.00169865,0.00760933,0.00094801,0.00014991,0.0047255
 7,-0.03530840,-0.05198294,-0.05187175,-0.00474894,-0.00558122,0.002172
 14,-0.00056230,0.00107216,-0.00272016,0.00010504,0.00005822,-0.0000967
 3,0.00000310,0.00001295,-0.00000365,-0.00000473,-0.00000674,0.00000085
 ,0.00000113,0.00000587,-0.00000149,-0.00000038,-0.00000172,-0.00000034
 ,-0.00000033,0.00000199,0.00000020,0.00000017,-0.00000009,0.00000078,0
 .00000035,-0.00000014,0.00000122,0.00000012,0.00000036,0.00000286,0.00
 000116,0.00000095,0.00000848,0.00000690,-0.00000071,0.00002711,0.00000
 334,0.00000103,0.00000018,-0.00000375,0.00000771,-0.00000129,0.0000433
 4,-0.00014426,0.00014302,-0.00001636,0.00027822,-0.00106653,0.00005661
 ,-0.00002341,0.00019347,-0.00005949,0.00152887,-0.00475680,0.03817523,
 0.05828997,0.04145579,0.00000061,-0.00001066,-0.00000287,-0.00000393,0
 .00002070,0.00000555,0.00002532,-0.00000588,-0.00000126,-0.00004263,0.
 00001281,0.00000345,0.00004108,0.00004970,0.00001376,-0.00007421,-0.00
 017825,-0.00004656,-0.00252052,0.00224624,0.00058794,-0.00081175,-0.00
 129292,-0.00032222,0.00014021,0.00003056,0.00001020,0.00007306,-0.0000
 1948,-0.00000365,0.00058611,0.00038150,0.00010673,-0.00089639,0.002461
 91,0.00059880,-0.00033984,0.00073384,0.00020029,-0.00461700,0.00259210
 ,0.00061747,-0.00027608,-0.00149940,-0.00041054,0.00007485,-0.00004031
 ,-0.00000875,0.00018615,0.00028947,0.00008099,0.00121539,-0.00202024,-
 0.00050737,-0.01494867,-0.02581504,-0.00719087,-0.14448755,-0.12369598
 ,-0.03455294,0.01243834,0.00949933,0.00264944,0.00002599,-0.00012882,-
 0.00003564,-0.00002067,-0.00001656,-0.00000453,0.00002667,0.00000578,0
 .00000147,-0.00001224,-0.00003437,-0.00000953,0.00000620,0.00001171,0.
 00000326,0.00000464,-0.00000008,0.00000002,0.00000505,0.00000266,0.000
 00075,-0.00000282,0.00000187,0.00000044,-0.00000861,-0.00001924,-0.000
 00554,-0.00321836,0.00068646,0.00014646,-0.00001740,-0.00001548,-0.000
 00461,-0.00006651,0.00018427,0.00005060,-0.00002263,-0.00008202,-0.000
 01385,-0.00045000,0.00004648,0.00000718,0.00001964,0.00007864,0.000021
 17,-0.00000562,0.00001047,0.00000081,-0.00009808,0.00128000,0.00034554
 ,0.15804007,0.00000690,0.00000421,0.00000179,-0.00000076,-0.00001602,-
 0.00000573,-0.00001390,0.00000217,0.00000427,0.00001353,-0.00000592,0.
 00000898,0.00005382,-0.00003591,-0.00001274,0.00016657,0.00080694,0.00
 030008,-0.00057437,-0.00075914,-0.00023321,-0.00166755,0.00004043,0.00
 112824,0.00011333,-0.00017003,-0.00002450,-0.00012174,0.00000431,0.000
 03157,-0.00124346,-0.00051388,-0.00021609,0.00405372,-0.00224269,-0.00
 252455,0.00058880,0.00018785,0.00017330,0.00097764,0.00123067,-0.00111
 627,0.00030225,-0.00002955,-0.00002121,0.00009185,0.00024856,0.0001168
 0,-0.00037533,0.00005377,0.00003217,0.00196843,0.00047458,0.00111835,0
 .00253043,0.00442516,-0.00009092,-0.12389302,-0.23277093,-0.05388022,-
 0.01727040,-0.01747615,-0.00619881,-0.00005150,0.00014484,0.00001243,-
 0.00019084,0.00000147,0.00000337,-0.00001087,0.00009070,0.00001431,0.0
 0002069,0.00001869,0.00000270,-0.00000575,-0.00000312,-0.00000029,-0.0
 0000436,0.00000029,0.00000006,-0.00000399,-0.00000150,-0.00000105,0.00
 000335,0.00000201,-0.00000068,0.00002084,0.00002941,0.00000094,0.00057
 077,0.00163069,0.00007327,0.00006505,0.00001734,-0.00000247,0.00015970
 ,-0.00036799,-0.00006487,-0.00010011,-0.00015139,0.00022719,0.00003667
 ,0.00000582,-0.00004562,-0.00001640,0.00000786,-0.00000972,-0.00005039
 ,0.00003045,-0.00005406,-0.00039015,0.00021976,0.00000710,0.13427188,0
 .24484488,0.00000190,0.00000164,-0.00000170,-0.00000028,-0.00000554,0.
 00000352,-0.00000343,0.00000434,-0.00001282,0.00000364,0.00000897,-0.0
 0003603,0.00001488,-0.00001278,0.00000935,0.00004718,0.00029707,-0.000
 21035,-0.00017886,-0.00020858,0.00002198,-0.00042406,0.00113151,-0.003
 85933,0.00003270,-0.00002522,-0.00008284,-0.00003145,0.00003247,-0.000
 10719,-0.00033503,-0.00020190,0.00018324,0.00103155,-0.00253845,0.0064
 9273,0.00016086,0.00017457,-0.00038184,0.00017857,-0.00110217,0.005070
 09,0.00007925,-0.00003695,0.00004884,0.00002718,0.00011565,-0.00014646
 ,-0.00009974,0.00003798,-0.00006717,0.00057698,0.00108351,-0.00327630,
 0.00051507,-0.00033850,0.00475339,-0.03460651,-0.05387850,-0.05350839,
 -0.00462813,-0.00596500,0.00310859,-0.00001463,0.00001176,0.00010052,-
 0.00005191,0.00000489,-0.00001619,-0.00000305,0.00001446,0.00004161,0.
 00000544,0.00000222,0.00001008,-0.00000149,-0.00000013,-0.00000230,-0.
 00000114,0.00000010,-0.00000004,-0.00000106,-0.00000099,0.00000196,0.0
 0000085,-0.00000070,0.00000445,0.00000536,0.00000059,0.00002684,0.0001
 1501,0.00007428,0.00140071,0.00001728,-0.00000317,0.00002780,0.0000439
 2,-0.00006466,-0.00014143,-0.00001876,0.00022735,-0.00092865,0.0000045
 1,-0.00004554,0.00016247,-0.00000466,-0.00000889,0.00004062,-0.0000157
 4,-0.00005353,0.00021300,-0.00010850,0.00002169,0.00018607,0.03767468,
 0.06124430,0.04085708,0.00004106,0.00005361,0.00001496,0.00002383,-0.0
 0006208,-0.00001651,-0.00007272,0.00000431,0.00000015,0.00024173,-0.00
 008367,-0.00001900,0.00049438,-0.00084040,-0.00022533,-0.00256155,-0.0
 0221802,-0.00066686,-0.00058447,-0.00047896,-0.00013164,-0.00491060,-0
 .00117103,-0.00042064,-0.00735665,0.02836113,0.00760392,0.00098116,0.0
 0227285,0.00067064,0.00009727,-0.00042528,-0.00011484,0.00016858,0.000
 23715,0.00006681,0.00003141,-0.00015052,-0.00004087,-0.00002278,0.0000
 2768,0.00000746,0.00002413,-0.00001092,-0.00000273,-0.00001756,0.00001
 550,0.00000410,-0.00001183,-0.00000210,-0.00000065,-0.00004233,-0.0000
 2215,-0.00000588,0.00000364,0.00011402,0.00003108,-0.00044322,-0.00016
 241,-0.00004890,0.00007026,0.00151520,0.00041008,-0.09166296,0.0868812
 3,0.02313978,0.00985816,-0.01820693,-0.00489956,0.00117127,-0.00136334
 ,-0.00033410,0.00014526,0.00041963,0.00011695,-0.00007670,-0.00000761,
 -0.00000431,0.00000603,0.00000567,0.00000173,0.00000060,0.00000556,0.0
 0000152,-0.00000145,0.00002194,0.00000582,-0.00017271,-0.00021956,-0.0
 0006321,0.00002888,0.00007228,0.00002898,-0.00036919,-0.00112997,-0.00
 031222,-0.00000746,-0.00000609,-0.00000480,-0.00002922,-0.00000546,-0.
 00000187,-0.00000675,-0.00000341,-0.00000100,-0.00000247,0.00000026,0.
 00000003,-0.00000729,0.00000297,0.00000061,0.00000420,-0.00000273,-0.0
 0000072,0.00002535,0.00000034,0.00000021,0.09526226,0.00000527,-0.0000
 8801,-0.00002313,-0.00010650,-0.00002773,-0.00000365,-0.00002061,0.000
 13206,0.00002385,0.00000328,0.00013497,0.00008768,0.00108369,-0.000720
 83,-0.00022322,-0.00406121,-0.00064961,-0.00150380,-0.00044283,0.00043
 626,0.00022910,0.00057770,0.00189614,-0.00132811,0.00055821,-0.0020959
 9,-0.00187327,-0.00230026,0.00020735,0.00141137,0.00033911,0.00016716,
 0.00004621,-0.00013854,0.00012366,0.00005931,0.00004293,0.00000717,-0.
 00000448,0.00000875,0.00002988,0.00001230,0.00000301,-0.00001463,-0.00
 000292,0.00001999,0.00000944,0.00000386,-0.00000853,0.00000114,0.00000
 099,0.00002676,-0.00000346,0.00001534,-0.00005422,-0.00001355,-0.00000
 256,0.00013319,0.00003207,-0.00001754,-0.00031290,-0.00026980,-0.00015
 239,0.08770278,-0.28030876,-0.06544656,0.00991947,-0.01714906,-0.00569
 492,0.00209740,0.00069592,0.00102630,-0.00041633,0.00017054,0.00009252
 ,0.00009124,-0.00005059,-0.00006196,-0.00001369,-0.00000245,0.00000336
 ,-0.00001102,0.00000139,0.00000034,0.00002212,0.00001261,-0.00000058,-
 0.00020620,-0.00025541,-0.00013376,0.00005191,-0.00019266,0.00023072,0
 .00039200,0.00046461,0.00007366,0.00007257,0.00002213,-0.00008914,0.00
 001519,0.00000820,-0.00000175,0.00000467,0.00000406,0.00000081,0.00000
 353,-0.00000050,-0.00000064,0.00000345,-0.00000237,-0.00000480,-0.0000
 0342,0.00000233,0.00000025,-0.00001583,0.00001077,-0.00000036,-0.09394
 704,0.29689629,0.00000181,-0.00002271,-0.00000891,-0.00002859,-0.00000
 326,-0.00001887,-0.00000662,0.00002407,0.00005015,0.00000464,0.0000869
 2,-0.00016379,0.00029775,-0.00024003,0.00007244,-0.00116795,-0.0014877
 1,0.00433684,-0.00012182,0.00022878,-0.00035955,0.00005477,-0.00134338
 ,0.00643528,0.00004547,-0.00163044,0.00436972,-0.00057260,0.00145131,-
 0.00466857,0.00009297,0.00003954,0.00001962,-0.00003533,0.00006259,-0.
 00008225,0.00001173,-0.00000617,0.00002346,0.00000231,0.00001247,-0.00
 001167,0.00000106,-0.00000304,-0.00000461,0.00000532,0.00000382,-0.000
 00302,-0.00000240,0.00000104,-0.00000250,0.00000742,0.00001491,-0.0000
 5491,-0.00001466,-0.00000109,-0.00000631,0.00003146,-0.00002012,0.0000
 9566,-0.00008690,-0.00013643,0.00024285,0.02336312,-0.06545374,-0.0543
 4321,0.00274683,-0.00594057,0.00252675,0.00060673,0.00099608,-0.002735
 75,-0.00011031,0.00009982,-0.00015699,0.00002256,-0.00006283,0.0001633
 8,-0.00000354,0.00000353,-0.00001432,-0.00000299,0.00000048,-0.0000000
 9,0.00000587,-0.00000058,0.00001534,-0.00005957,-0.00013387,0.00019306
 ,0.00002345,0.00023090,-0.00097669,0.00010154,0.00006037,0.00022355,0.
 00001659,-0.00008983,0.00032809,0.00000374,-0.00000193,0.00001462,0.00
 000120,0.00000074,0.00000144,0.00000092,-0.00000067,0.00000179,0.00000
 074,-0.00000481,0.00001411,-0.00000090,0.00000025,0.00000137,-0.000004
 18,-0.00000021,0.00001147,-0.02492291,0.07321094,0.04426495,0.00012097
 ,0.00044743,0.00012325,0.00022980,-0.00017384,-0.00004328,0.00046233,-
 0.00079080,-0.00021196,-0.00238360,-0.00224380,-0.00068366,-0.00060447
 ,-0.00046291,-0.00012658,-0.00503317,-0.00128320,-0.00044278,0.0000284
 9,0.00152822,0.00041429,0.00015189,0.00010686,0.00003208,0.00017083,-0
 .00041098,-0.00010877,0.00000002,0.00003785,0.00000790,-0.00001357,0.0
 0002019,0.00000541,-0.00004840,0.00004288,0.00001116,0.00000737,-0.000
 02566,-0.00000691,-0.00002735,0.00001764,0.00000459,0.00001237,-0.0000
 0404,-0.00000099,-0.00001155,0.00000875,0.00000228,-0.00000570,-0.0000
 1078,-0.00000297,0.00000263,-0.00000247,-0.00000065,0.00000292,-0.0000
 3212,-0.00000872,-0.00001257,0.00002178,0.00000589,0.00005810,-0.00007
 792,-0.00002112,0.00141651,0.00180848,0.00053682,-0.00710391,0.0283883
 6,0.00761795,-0.09391561,0.08941265,0.02380639,0.01007505,-0.01774584,
 -0.00477589,0.00100877,-0.00156968,-0.00038187,0.00002487,0.00002824,0
 .00000551,-0.00002209,0.00003562,0.00000906,-0.00017715,-0.00021166,-0
 .00006120,0.00002158,0.00007003,0.00002896,-0.00043599,0.00007898,0.00
 001569,-0.00002177,-0.00003772,-0.00001048,0.00000011,-0.00000415,-0.0
 0000080,-0.00000750,-0.00000250,-0.00000075,-0.00000344,-0.00000169,-0
 .00000048,-0.00000131,0.00000024,0.00000005,-0.00000129,0.00000142,0.0
 0000037,0.00000195,-0.00000271,-0.00000073,0.00000531,-0.00003048,-0.0
 0000824,-0.00029645,-0.00108910,-0.00030034,0.09660812,-0.00027019,0.0
 0008773,0.00003873,-0.00004380,0.00011728,0.00009299,0.00105873,-0.000
 72066,-0.00021835,-0.00402376,-0.00055231,-0.00183004,-0.00046302,0.00
 039484,0.00024485,0.00050060,0.00184883,-0.00104835,-0.00032316,-0.000
 29627,-0.00012742,-0.00002425,0.00024532,0.00011950,0.00037922,0.00007
 360,0.00006891,-0.00002217,-0.00006969,-0.00009362,0.00005805,-0.00001
 226,-0.00000155,-0.00000294,0.00001591,0.00000204,0.00002537,-0.000017
 29,-0.00000455,0.00000440,0.00001992,0.00000647,0.00000231,-0.00001486
 ,-0.00000393,0.00001228,0.00000687,0.00000196,-0.00000510,-0.00000027,
 0.00000024,0.00001437,0.00000025,0.00000019,-0.00002867,0.00000950,0.0
 0000202,0.00002331,-0.00000849,0.00000049,-0.00005557,0.00002484,-0.00
 000755,-0.00176184,0.00036255,0.00110421,0.00029476,-0.00145101,-0.001
 56254,0.08930185,-0.27845904,-0.06498876,0.01023503,-0.01745253,-0.005
 88570,0.00219692,0.00062559,0.00131132,-0.00004419,-0.00001066,-0.0000
 7750,-0.00005429,0.00004056,-0.00000272,-0.00021885,-0.00024830,-0.000
 13511,0.00006907,-0.00020489,0.00024779,0.00007387,-0.00000074,-0.0000
 6107,-0.00000162,0.00001483,0.00000290,0.00001270,0.00000057,0.0000105
 7,0.00000579,0.00000358,0.00000078,0.00000274,0.00000314,0.00000122,0.
 00000346,-0.00000068,-0.00000033,0.00000200,-0.00000305,-0.00000109,-0
 .00000266,0.00000050,-0.00000020,-0.00000434,0.00000760,0.00000196,0.0
 0050924,0.00036128,0.00005062,-0.09633698,0.29488473,-0.00007184,0.000
 04500,-0.00005182,-0.00000793,0.00009186,-0.00020129,0.00029085,-0.000
 23451,0.00005533,-0.00116755,-0.00181449,0.00554653,-0.00012661,0.0002
 4485,-0.00045522,0.00004216,-0.00106393,0.00543228,-0.00008902,-0.0001
 1125,0.00013101,-0.00000356,0.00012065,-0.00016227,0.00010605,0.000062
 01,-0.00014991,-0.00000842,-0.00009310,0.00024859,0.00001570,-0.000001
 88,-0.00000507,-0.00000130,0.00000245,0.00000895,0.00000696,-0.0000050
 0,-0.00000102,0.00000099,0.00000658,-0.00000193,0.00000074,-0.00000399
 ,-0.00000140,0.00000324,0.00000193,0.00000061,-0.00000143,0.00000019,-
 0.00000129,0.00000393,0.00000005,0.00000004,-0.00000778,0.00000199,0.0
 0000162,0.00000631,0.00000048,-0.00000936,-0.00001504,-0.00000774,0.00
 004857,-0.00043379,0.00113539,-0.00345089,-0.00001952,-0.00131717,0.00
 394785,0.02377627,-0.06498779,-0.05399581,0.00283094,-0.00613009,0.002
 88441,0.00064211,0.00127842,-0.00377420,-0.00001418,-0.00007686,0.0002
 5197,-0.00001538,-0.00000194,0.00004817,-0.00006315,-0.00013505,0.0002
 0439,0.00002870,0.00024780,-0.00104651,0.00001430,-0.00006103,0.000209
 81,-0.00000067,0.00000259,0.00000480,0.00000379,0.00001043,-0.00003505
 ,0.00000150,0.00000071,0.00000110,0.00000073,0.00000118,-0.00000092,0.
 00000092,-0.00000035,0.00000054,0.00000052,-0.00000110,0.00000073,-0.0
 0000071,-0.00000020,0.00000107,-0.00000113,0.00000174,0.00000070,0.000
 13418,0.00003666,0.00020259,-0.02555912,0.07269797,0.04391848,0.010910
 54,-0.01926335,-0.00518523,-0.00204137,-0.00246651,-0.00076217,-0.0006
 0800,-0.00053910,-0.00014704,-0.00512564,-0.00125571,-0.00042453,0.000
 03002,0.00157735,0.00042779,0.00017850,0.00007228,0.00002286,0.0000029
 5,-0.00009666,-0.00002657,-0.00005464,-0.00000334,-0.00000128,0.000004
 34,0.00002108,0.00000577,0.00001258,0.00001060,0.00000315,-0.00000423,
 0.00001124,0.00000305,-0.00001312,0.00001044,0.00000273,0.00000141,-0.
 00000321,-0.00000085,-0.00000901,0.00000328,0.00000081,0.00000426,0.00
 000085,0.00000027,-0.00000574,0.00000250,0.00000063,-0.00000134,-0.000
 00418,-0.00000114,-0.00000089,-0.00000100,-0.00000028,0.00000393,-0.00
 000465,-0.00000123,-0.00000681,-0.00000215,-0.00000063,0.00002325,-0.0
 0000231,-0.00000041,-0.00002316,0.00004057,0.00000955,0.00017715,-0.00
 045144,-0.00011965,0.00145158,0.00174899,0.00051115,-0.00718239,0.0280
 3744,0.00752734,-0.09472837,0.09089522,0.02420991,0.00108080,0.0004873
 0,0.00018999,0.00034190,-0.00089084,-0.00024088,0.00008063,0.00006306,
 0.00002815,-0.00045118,0.00007657,0.00001476,0.00002727,-0.00001044,-0
 .00000272,-0.00000246,-0.00000641,-0.00000180,-0.00000123,-0.00000186,
 -0.00000056,-0.00000244,-0.00000108,-0.00000032,-0.00000108,-0.0000007
 8,-0.00000023,-0.00000054,0.00000015,0.00000003,-0.00000050,0.00000068
 ,0.00000018,0.00000067,-0.00000050,-0.00000014,0.00000147,-0.00000122,
 -0.00000034,-0.00002310,-0.00003002,-0.00000838,-0.00028311,-0.0010986
 9,-0.00030274,0.09623711,0.01127817,-0.01679332,-0.00582489,-0.0041080
 9,-0.00073083,-0.00253185,-0.00036501,0.00051780,0.00028794,0.00043951
 ,0.00163045,-0.00074775,-0.00035323,-0.00027104,-0.00011689,-0.0000128
 8,0.00019031,0.00010290,-0.00007817,0.00005506,0.00000428,0.00003971,0
 .00008034,0.00002554,0.00007800,-0.00003501,-0.00000892,-0.00000726,-0
 .00004317,-0.00000684,0.00002224,0.00000667,0.00000293,-0.00000192,0.0
 0001322,0.00000370,0.00001261,-0.00001752,-0.00000446,0.00000288,0.000
 01615,0.00000445,-0.00000007,-0.00001332,-0.00000350,0.00000815,0.0000
 0317,0.00000105,-0.00000136,-0.00000194,-0.00000034,0.00001188,0.00000
 272,0.00000094,-0.00001910,0.00000215,0.00000057,0.00002385,-0.0000036
 0,-0.00000037,-0.00003797,0.00000232,0.00000076,-0.00005865,-0.0001045
 4,-0.00006857,0.00037725,0.00018885,0.00010231,-0.00165444,0.00042377,
 0.00081637,-0.00017622,-0.00135513,-0.00137000,0.09045810,-0.28002682,
 -0.06516924,-0.00012415,0.00061500,0.00166262,0.00053012,-0.00083521,-
 0.00027499,0.00007749,-0.00015915,0.00027797,0.00006844,0.00000406,-0.
 00006431,-0.00001112,-0.00001341,-0.00000736,-0.00000150,0.00000886,0.
 00000142,0.00000740,0.00000201,-0.00000083,0.00000357,0.00000297,0.000
 00063,0.00000192,0.00000314,0.00000076,0.00000361,-0.00000080,-0.00000
 030,0.00000185,-0.00000298,-0.00000093,-0.00000252,-0.00000019,-0.0000
 0031,-0.00000347,0.00000297,0.00000027,-0.00000089,0.00001800,0.000004
 23,0.00049539,0.00037318,0.00005655,-0.09692414,0.29624484,0.00311773,
 -0.00609164,0.00336641,-0.00120845,-0.00251751,0.00775534,-0.00009971,
 0.00028642,-0.00047611,0.00003633,-0.00076256,0.00418811,-0.00009706,-
 0.00010003,0.00011954,-0.00000030,0.00010364,-0.00016043,-0.00002155,0
 .00000412,0.00003774,0.00001043,0.00002516,-0.00000539,0.00002124,-0.0
 0000942,-0.00000205,-0.00000170,-0.00000668,-0.00002008,0.00000604,0.0
 0000284,-0.00000259,-0.00000063,0.00000381,0.00000058,0.00000345,-0.00
 000460,-0.00000194,0.00000071,0.00000445,0.00000110,0.00000002,-0.0000
 0349,-0.00000139,0.00000217,0.00000100,-0.00000013,-0.00000037,-0.0000
 0037,-0.00000083,0.00000322,0.00000083,-0.00000010,-0.00000515,0.00000
 069,-0.00000041,0.00000644,-0.00000059,-0.00000159,-0.00001010,0.00000
 107,-0.00000151,-0.00001742,-0.00006771,0.00012725,0.00010564,0.000095
 08,-0.00014862,-0.00041410,0.00084610,-0.00240591,-0.00014277,-0.00112
 358,0.00337190,0.02409108,-0.06516542,-0.05490811,0.00002377,0.0016679
 6,-0.00505110,0.00014541,-0.00028740,0.00011649,0.00003207,0.00027784,
 -0.00110332,0.00001254,-0.00006424,0.00022547,-0.00000290,-0.00000735,
 0.00001126,-0.00000046,0.00000138,0.00000395,0.00000195,-0.00000091,0.
 00000506,0.00000094,0.00000059,0.00000093,0.00000051,0.00000074,0.0000
 0061,0.00000097,-0.00000033,0.00000035,0.00000049,-0.00000094,0.000000
 24,-0.00000069,-0.00000029,0.00000077,-0.00000095,0.00000029,0.0000019
 3,-0.00000046,0.00000397,0.00000350,0.00013062,0.00004263,0.00019381,-
 0.02572900,0.07284446,0.04475924\\0.00005084,0.00004364,0.00001231,0.0
 0007107,0.00000259,0.00000133,-0.00001891,-0.00006103,-0.00001676,-0.0
 0008254,0.00020079,0.00005387,0.00003724,-0.00015499,-0.00004181,0.000
 01368,0.00022986,0.00006261,-0.00000370,-0.00002243,-0.00000613,-0.000
 00663,0.00001976,0.00000531,0.00012770,-0.00015553,-0.00004117,-0.0000
 8447,0.00001551,0.00000348,0.00008423,-0.00000050,0.00000060,-0.000146
 25,-0.00010403,-0.00002956,0.00008440,0.00010792,0.00003008,-0.0001137
 7,-0.00011304,-0.00003172,0.00006246,0.00003335,0.00000961,-0.00003553
 ,0.00002312,0.00000598,-0.00004411,0.00003332,0.00000867,-0.00000481,-
 0.00007027,-0.00001915,0.00003491,0.00014536,0.00003982,-0.00001505,-0
 .00002789,-0.00000771,-0.00000848,0.00002056,0.00000552,-0.00007760,0.
 00011746,0.00003126,0.00013935,-0.00018914,-0.00005020,-0.00007161,0.0
 0014373,0.00003845,0.00006344,-0.00020471,-0.00005510,-0.00004980,0.00
 003183,0.00000822,-0.00002251,-0.00001585,-0.00000450,-0.00002785,-0.0
 0000393,-0.00000131,-0.00002047,0.00000589,0.00000142,-0.00001419,0.00
 002851,0.00000763,0.00001667,0.00003113,0.00000861,0.00002374,0.000001
 87,0.00000072,-0.00002135,0.00000935,0.00000235,-0.00001659,-0.0000281
 1,-0.00000779,0.00001289,-0.00002279,-0.00000608,0.00001830,-0.0000084
 7,-0.00000214,0.00001253,-0.00001719,-0.00000456,0.00002797,-0.0000048
 7,-0.00000108,-0.00000522,0.00003624,0.00000981,0.00001025,-0.00002982
 ,-0.00000802,0.00000986,-0.00002984,-0.00000803,-0.00001008,-0.0000173
 7,-0.00000481\\\@
 The archive entry for this job was punched.


 REALITY IS FOR PEOPLE WHO CAN'T FACE SCIENCE FICTION.
 Job cpu time:       0 days  1 hours 19 minutes 31.2 seconds.
 Elapsed time:       0 days  0 hours  9 minutes 56.5 seconds.
 File lengths (MBytes):  RWF=    772 Int=      0 D2E=      0 Chk=     15 Scr=      1
 Normal termination of Gaussian 16 at Tue Oct  8 23:11:41 2024.
