 Entering Gaussian System, Link 0=g16
 Initial command:
 /opt/g16/l1.exe "/tmp/Gau-1318020.inp" -scrdir="/tmp/"
 Entering Link 1 = /opt/g16/l1.exe PID=   1318022.
  
 Copyright (c) 1988-2019, Gaussian, Inc.  All Rights Reserved.
  
 This is part of the Gaussian(R) 16 program.  It is based on
 the Gaussian(R) 09 system (copyright 2009, Gaussian, Inc.),
 the Gaussian(R) 03 system (copyright 2003, Gaussian, Inc.),
 the Gaussian(R) 98 system (copyright 1998, Gaussian, Inc.),
 the Gaussian(R) 94 system (copyright 1995, Gaussian, Inc.),
 the Gaussian 92(TM) system (copyright 1992, Gaussian, Inc.),
 the Gaussian 90(TM) system (copyright 1990, Gaussian, Inc.),
 the Gaussian 88(TM) system (copyright 1988, Gaussian, Inc.),
 the Gaussian 86(TM) system (copyright 1986, Carnegie Mellon
 University), and the Gaussian 82(TM) system (copyright 1983,
 Carnegie Mellon University). Gaussian is a federally registered
 trademark of Gaussian, Inc.
  
 This software contains proprietary and confidential information,
 including trade secrets, belonging to Gaussian, Inc.
  
 This software is provided under written license and may be
 used, copied, transmitted, or stored only in accord with that
 written license.
  
 The following legend is applicable only to US Government
 contracts under FAR:
  
                    RESTRICTED RIGHTS LEGEND
  
 Use, reproduction and disclosure by the US Government is
 subject to restrictions as set forth in subparagraphs (a)
 and (c) of the Commercial Computer Software - Restricted
 Rights clause in FAR 52.227-19.
  
 Gaussian, Inc.
 340 Quinnipiac St., Bldg. 40, Wallingford CT 06492
  
  
 ---------------------------------------------------------------
 Warning -- This program may not be used in any manner that
 competes with the business of Gaussian, Inc. or will provide
 assistance to any competitor of Gaussian, Inc.  The licensee
 of this program is prohibited from giving any competitor of
 Gaussian, Inc. access to this program.  By using this program,
 the user acknowledges that Gaussian, Inc. is engaged in the
 business of creating and licensing software in the field of
 computational chemistry and represents and warrants to the
 licensee that it is not a competitor of Gaussian, Inc. and that
 it will not use this program in any manner prohibited above.
 ---------------------------------------------------------------
  

 Cite this work as:
 Gaussian 16, Revision C.01,
 M. J. Frisch, G. W. Trucks, H. B. Schlegel, G. E. Scuseria, 
 M. A. Robb, J. R. Cheeseman, G. Scalmani, V. Barone, 
 G. A. Petersson, H. Nakatsuji, X. Li, M. Caricato, A. V. Marenich, 
 J. Bloino, B. G. Janesko, R. Gomperts, B. Mennucci, H. P. Hratchian, 
 J. V. Ortiz, A. F. Izmaylov, J. L. Sonnenberg, D. Williams-Young, 
 F. Ding, F. Lipparini, F. Egidi, J. Goings, B. Peng, A. Petrone, 
 T. Henderson, D. Ranasinghe, V. G. Zakrzewski, J. Gao, N. Rega, 
 G. Zheng, W. Liang, M. Hada, M. Ehara, K. Toyota, R. Fukuda, 
 J. Hasegawa, M. Ishida, T. Nakajima, Y. Honda, O. Kitao, H. Nakai, 
 T. Vreven, K. Throssell, J. A. Montgomery, Jr., J. E. Peralta, 
 F. Ogliaro, M. J. Bearpark, J. J. Heyd, E. N. Brothers, K. N. Kudin, 
 V. N. Staroverov, T. A. Keith, R. Kobayashi, J. Normand, 
 K. Raghavachari, A. P. Rendell, J. C. Burant, S. S. Iyengar, 
 J. Tomasi, M. Cossi, J. M. Millam, M. Klene, C. Adamo, R. Cammi, 
 J. W. Ochterski, R. L. Martin, K. Morokuma, O. Farkas, 
 J. B. Foresman, and D. J. Fox, Gaussian, Inc., Wallingford CT, 2019.
 
 ******************************************
 Gaussian 16:  ES64L-G16RevC.01  3-Jul-2019
                 8-Oct-2024 
 ******************************************
 %nprocshared=8
 Will use up to    8 processors via shared memory.
 %mem=10400MB
 ----------------------------------------------------------------------
 #N opt freq B3LYP/def2SVPP symm=veryloose em=gd3bj scale=0.961 press=0
 .987
 ----------------------------------------------------------------------
 1/18=20,19=15,26=3,38=1,113=-987000,114=961000/1,3;
 2/9=110,12=2,17=2,18=2,40=1/2;
 3/5=43,7=202,11=2,25=1,30=1,71=1,74=-5,124=41/1,2,3;
 4//1;
 5/5=2,38=5/2;
 6/7=2,8=2,9=2,10=2,28=1/1;
 7//1,2,3,16;
 1/18=20,19=15,26=3/3(2);
 2/9=110/2;
 99//99;
 2/9=110/2;
 3/5=43,7=202,11=2,25=1,30=1,71=1,74=-5,124=41/1,2,3;
 4/5=5,16=3,69=1/1;
 5/5=2,38=5/2;
 7//1,2,3,16;
 1/18=20,19=15,26=3/3(-5);
 2/9=110/2;
 6/7=2,8=2,9=2,10=2,19=2,28=1/1;
 99/9=1/99;
 ------------------------------------------
 c1ccc2cc3cc4cc5c(ccc6ccccc65)cc4cc3cc2c1_2
 ------------------------------------------
 Symbolic Z-matrix:
 Charge =  0 Multiplicity = 1
 C                     7.1723    0.6288   -0.2737 
 C                     6.9472    1.2516    0.9499 
 C                     5.6466    1.3715    1.4419 
 C                     4.5541    0.8694    0.7154 
 C                     3.2392    0.9822    1.1967 
 C                     2.1469    0.4797    0.4693 
 C                     0.8311    0.5919    0.9497 
 C                    -0.2628    0.0896    0.223 
 C                    -1.5827    0.2004    0.7018 
 C                    -2.7068   -0.2959   -0.0076 
 C                    -2.4443   -0.9241   -1.249 
 C                    -3.4991   -1.439    -2.0075 
 C                    -4.8137   -1.3444   -1.5605 
 C                    -5.1124   -0.7319   -0.3414 
 C                    -6.4504   -0.6526    0.0815 
 C                    -6.7879   -0.0498    1.29 
 C                    -5.7887    0.4812    2.0906 
 C                    -4.4538    0.4083    1.6804 
 C                    -4.0685   -0.1972    0.4569 
 C                    -1.1284   -1.0368   -1.7305 
 C                    -0.034    -0.5381   -1.0105 
 C                     1.281    -0.652    -1.4942 
 C                     2.3748   -0.1506   -0.769 
 C                     3.6897   -0.264    -1.2518 
 C                     4.7824    0.2378   -0.5256 
 C                     6.0971    0.1249   -1.0073 
 H                     8.1842    0.5343   -0.6587 
 H                     7.7829    1.6447    1.5229 
 H                     5.4909    1.8616    2.4004 
 H                     3.0635    1.4695    2.154 
 H                     0.6549    1.0792    1.9071 
 H                    -1.7262    0.6919    1.6603 
 H                    -3.3091   -1.9238   -2.963 
 H                    -5.606    -1.7579   -2.181 
 H                    -7.2476   -1.0642   -0.5344 
 H                    -7.8271    0.0033    1.6025 
 H                    -6.0406    0.9542    3.0362 
 H                    -3.7123    0.8403    2.346 
 H                    -0.9512   -1.5242   -2.6882 
 H                     1.4556   -1.1395   -2.4517 
 H                     3.866    -0.7512   -2.209 
 H                     6.2934   -0.3587   -1.9616 
 

 GradGradGradGradGradGradGradGradGradGradGradGradGradGradGradGradGradGrad
 Berny optimization.
 Initialization pass.
                           ----------------------------
                           !    Initial Parameters    !
                           ! (Angstroms and Degrees)  !
 --------------------------                            --------------------------
 ! Name  Definition              Value          Derivative Info.                !
 --------------------------------------------------------------------------------
 ! R1    R(1,2)                  1.3913         estimate D2E/DX2                !
 ! R2    R(1,26)                 1.3958         estimate D2E/DX2                !
 ! R3    R(1,27)                 1.0868         estimate D2E/DX2                !
 ! R4    R(2,3)                  1.3957         estimate D2E/DX2                !
 ! R5    R(2,28)                 1.0869         estimate D2E/DX2                !
 ! R6    R(3,4)                  1.4048         estimate D2E/DX2                !
 ! R7    R(3,29)                 1.0877         estimate D2E/DX2                !
 ! R8    R(4,5)                  1.4048         estimate D2E/DX2                !
 ! R9    R(4,25)                 1.4111         estimate D2E/DX2                !
 ! R10   R(5,6)                  1.4053         estimate D2E/DX2                !
 ! R11   R(5,30)                 1.0885         estimate D2E/DX2                !
 ! R12   R(6,7)                  1.4052         estimate D2E/DX2                !
 ! R13   R(6,23)                 1.408          estimate D2E/DX2                !
 ! R14   R(7,8)                  1.4061         estimate D2E/DX2                !
 ! R15   R(7,31)                 1.0886         estimate D2E/DX2                !
 ! R16   R(8,9)                  1.4084         estimate D2E/DX2                !
 ! R17   R(8,21)                 1.4028         estimate D2E/DX2                !
 ! R18   R(9,10)                 1.4189         estimate D2E/DX2                !
 ! R19   R(9,32)                 1.0867         estimate D2E/DX2                !
 ! R20   R(10,11)                1.4158         estimate D2E/DX2                !
 ! R21   R(10,19)                1.4421         estimate D2E/DX2                !
 ! R22   R(11,12)                1.3975         estimate D2E/DX2                !
 ! R23   R(11,20)                1.4058         estimate D2E/DX2                !
 ! R24   R(12,13)                1.3917         estimate D2E/DX2                !
 ! R25   R(12,33)                1.0882         estimate D2E/DX2                !
 ! R26   R(13,14)                1.3966         estimate D2E/DX2                !
 ! R27   R(13,34)                1.088          estimate D2E/DX2                !
 ! R28   R(14,15)                1.4055         estimate D2E/DX2                !
 ! R29   R(14,19)                1.4188         estimate D2E/DX2                !
 ! R30   R(15,16)                1.392          estimate D2E/DX2                !
 ! R31   R(15,35)                1.0882         estimate D2E/DX2                !
 ! R32   R(16,17)                1.3861         estimate D2E/DX2                !
 ! R33   R(16,36)                1.0865         estimate D2E/DX2                !
 ! R34   R(17,18)                1.3984         estimate D2E/DX2                !
 ! R35   R(17,37)                1.0869         estimate D2E/DX2                !
 ! R36   R(18,19)                1.4185         estimate D2E/DX2                !
 ! R37   R(18,38)                1.086          estimate D2E/DX2                !
 ! R38   R(20,21)                1.4017         estimate D2E/DX2                !
 ! R39   R(20,39)                1.0891         estimate D2E/DX2                !
 ! R40   R(21,22)                1.4058         estimate D2E/DX2                !
 ! R41   R(22,23)                1.4049         estimate D2E/DX2                !
 ! R42   R(22,40)                1.0886         estimate D2E/DX2                !
 ! R43   R(23,24)                1.4053         estimate D2E/DX2                !
 ! R44   R(24,25)                1.4047         estimate D2E/DX2                !
 ! R45   R(24,41)                1.0884         estimate D2E/DX2                !
 ! R46   R(25,26)                1.4047         estimate D2E/DX2                !
 ! R47   R(26,42)                1.0877         estimate D2E/DX2                !
 ! A1    A(2,1,26)             119.9478         estimate D2E/DX2                !
 ! A2    A(2,1,27)             120.0741         estimate D2E/DX2                !
 ! A3    A(26,1,27)            119.9781         estimate D2E/DX2                !
 ! A4    A(1,2,3)              119.9495         estimate D2E/DX2                !
 ! A5    A(1,2,28)             120.0767         estimate D2E/DX2                !
 ! A6    A(3,2,28)             119.9737         estimate D2E/DX2                !
 ! A7    A(2,3,4)              120.7765         estimate D2E/DX2                !
 ! A8    A(2,3,29)             118.8634         estimate D2E/DX2                !
 ! A9    A(4,3,29)             120.3602         estimate D2E/DX2                !
 ! A10   A(3,4,5)              121.4703         estimate D2E/DX2                !
 ! A11   A(3,4,25)             119.2737         estimate D2E/DX2                !
 ! A12   A(5,4,25)             119.256          estimate D2E/DX2                !
 ! A13   A(4,5,6)              121.4338         estimate D2E/DX2                !
 ! A14   A(4,5,30)             119.2341         estimate D2E/DX2                !
 ! A15   A(6,5,30)             119.3321         estimate D2E/DX2                !
 ! A16   A(5,6,7)              121.4876         estimate D2E/DX2                !
 ! A17   A(5,6,23)             119.3068         estimate D2E/DX2                !
 ! A18   A(7,6,23)             119.2055         estimate D2E/DX2                !
 ! A19   A(6,7,8)              121.5512         estimate D2E/DX2                !
 ! A20   A(6,7,31)             119.2056         estimate D2E/DX2                !
 ! A21   A(8,7,31)             119.2432         estimate D2E/DX2                !
 ! A22   A(7,8,9)              121.6874         estimate D2E/DX2                !
 ! A23   A(7,8,21)             119.1707         estimate D2E/DX2                !
 ! A24   A(9,8,21)             119.1419         estimate D2E/DX2                !
 ! A25   A(8,9,10)             123.0227         estimate D2E/DX2                !
 ! A26   A(8,9,32)             117.3347         estimate D2E/DX2                !
 ! A27   A(10,9,32)            119.6426         estimate D2E/DX2                !
 ! A28   A(9,10,11)            116.5315         estimate D2E/DX2                !
 ! A29   A(9,10,19)            124.2699         estimate D2E/DX2                !
 ! A30   A(11,10,19)           119.1986         estimate D2E/DX2                !
 ! A31   A(10,11,12)           119.9614         estimate D2E/DX2                !
 ! A32   A(10,11,20)           120.6267         estimate D2E/DX2                !
 ! A33   A(12,11,20)           119.4119         estimate D2E/DX2                !
 ! A34   A(11,12,13)           120.902          estimate D2E/DX2                !
 ! A35   A(11,12,33)           120.5931         estimate D2E/DX2                !
 ! A36   A(13,12,33)           118.5049         estimate D2E/DX2                !
 ! A37   A(12,13,14)           120.8093         estimate D2E/DX2                !
 ! A38   A(12,13,34)           118.6103         estimate D2E/DX2                !
 ! A39   A(14,13,34)           120.5805         estimate D2E/DX2                !
 ! A40   A(13,14,15)           119.4058         estimate D2E/DX2                !
 ! A41   A(13,14,19)           119.9381         estimate D2E/DX2                !
 ! A42   A(15,14,19)           120.656          estimate D2E/DX2                !
 ! A43   A(14,15,16)           121.0955         estimate D2E/DX2                !
 ! A44   A(14,15,35)           120.3812         estimate D2E/DX2                !
 ! A45   A(16,15,35)           118.5232         estimate D2E/DX2                !
 ! A46   A(15,16,17)           119.5083         estimate D2E/DX2                !
 ! A47   A(15,16,36)           120.1838         estimate D2E/DX2                !
 ! A48   A(17,16,36)           120.308          estimate D2E/DX2                !
 ! A49   A(16,17,18)           119.916          estimate D2E/DX2                !
 ! A50   A(16,17,37)           120.1419         estimate D2E/DX2                !
 ! A51   A(18,17,37)           119.942          estimate D2E/DX2                !
 ! A52   A(17,18,19)           122.3145         estimate D2E/DX2                !
 ! A53   A(17,18,38)           116.8233         estimate D2E/DX2                !
 ! A54   A(19,18,38)           120.8622         estimate D2E/DX2                !
 ! A55   A(10,19,14)           119.1907         estimate D2E/DX2                !
 ! A56   A(10,19,18)           124.2997         estimate D2E/DX2                !
 ! A57   A(14,19,18)           116.5097         estimate D2E/DX2                !
 ! A58   A(11,20,21)           121.762          estimate D2E/DX2                !
 ! A59   A(11,20,39)           119.2996         estimate D2E/DX2                !
 ! A60   A(21,20,39)           118.9384         estimate D2E/DX2                !
 ! A61   A(8,21,20)            118.9152         estimate D2E/DX2                !
 ! A62   A(8,21,22)            119.4314         estimate D2E/DX2                !
 ! A63   A(20,21,22)           121.6535         estimate D2E/DX2                !
 ! A64   A(21,22,23)           121.4509         estimate D2E/DX2                !
 ! A65   A(21,22,40)           119.2739         estimate D2E/DX2                !
 ! A66   A(23,22,40)           119.2752         estimate D2E/DX2                !
 ! A67   A(6,23,22)            119.1903         estimate D2E/DX2                !
 ! A68   A(6,23,24)            119.3207         estimate D2E/DX2                !
 ! A69   A(22,23,24)           121.4889         estimate D2E/DX2                !
 ! A70   A(23,24,25)           121.4267         estimate D2E/DX2                !
 ! A71   A(23,24,41)           119.3278         estimate D2E/DX2                !
 ! A72   A(25,24,41)           119.2455         estimate D2E/DX2                !
 ! A73   A(4,25,24)            119.256          estimate D2E/DX2                !
 ! A74   A(4,25,26)            119.274          estimate D2E/DX2                !
 ! A75   A(24,25,26)           121.47           estimate D2E/DX2                !
 ! A76   A(1,26,25)            120.7785         estimate D2E/DX2                !
 ! A77   A(1,26,42)            118.8567         estimate D2E/DX2                !
 ! A78   A(25,26,42)           120.3647         estimate D2E/DX2                !
 ! D1    D(26,1,2,3)             0.0011         estimate D2E/DX2                !
 ! D2    D(26,1,2,28)          179.9977         estimate D2E/DX2                !
 ! D3    D(27,1,2,3)          -179.9976         estimate D2E/DX2                !
 ! D4    D(27,1,2,28)           -0.0009         estimate D2E/DX2                !
 ! D5    D(2,1,26,25)           -0.0024         estimate D2E/DX2                !
 ! D6    D(2,1,26,42)         -179.9943         estimate D2E/DX2                !
 ! D7    D(27,1,26,25)         179.9962         estimate D2E/DX2                !
 ! D8    D(27,1,26,42)           0.0043         estimate D2E/DX2                !
 ! D9    D(1,2,3,4)              0.0026         estimate D2E/DX2                !
 ! D10   D(1,2,3,29)          -179.9996         estimate D2E/DX2                !
 ! D11   D(28,2,3,4)          -179.994          estimate D2E/DX2                !
 ! D12   D(28,2,3,29)            0.0037         estimate D2E/DX2                !
 ! D13   D(2,3,4,5)           -179.9957         estimate D2E/DX2                !
 ! D14   D(2,3,4,25)            -0.0049         estimate D2E/DX2                !
 ! D15   D(29,3,4,5)             0.0065         estimate D2E/DX2                !
 ! D16   D(29,3,4,25)          179.9973         estimate D2E/DX2                !
 ! D17   D(3,4,5,6)            179.9977         estimate D2E/DX2                !
 ! D18   D(3,4,5,30)            -0.0069         estimate D2E/DX2                !
 ! D19   D(25,4,5,6)             0.0069         estimate D2E/DX2                !
 ! D20   D(25,4,5,30)         -179.9977         estimate D2E/DX2                !
 ! D21   D(3,4,25,24)         -179.9933         estimate D2E/DX2                !
 ! D22   D(3,4,25,26)            0.0035         estimate D2E/DX2                !
 ! D23   D(5,4,25,24)           -0.0023         estimate D2E/DX2                !
 ! D24   D(5,4,25,26)          179.9945         estimate D2E/DX2                !
 ! D25   D(4,5,6,7)            179.9989         estimate D2E/DX2                !
 ! D26   D(4,5,6,23)            -0.0035         estimate D2E/DX2                !
 ! D27   D(30,5,6,7)             0.0035         estimate D2E/DX2                !
 ! D28   D(30,5,6,23)         -179.9988         estimate D2E/DX2                !
 ! D29   D(5,6,7,8)            179.9999         estimate D2E/DX2                !
 ! D30   D(5,6,7,31)            -0.0034         estimate D2E/DX2                !
 ! D31   D(23,6,7,8)             0.0022         estimate D2E/DX2                !
 ! D32   D(23,6,7,31)          179.9989         estimate D2E/DX2                !
 ! D33   D(5,6,23,22)         -179.996          estimate D2E/DX2                !
 ! D34   D(5,6,23,24)           -0.0046         estimate D2E/DX2                !
 ! D35   D(7,6,23,22)            0.0018         estimate D2E/DX2                !
 ! D36   D(7,6,23,24)          179.9932         estimate D2E/DX2                !
 ! D37   D(6,7,8,9)            179.9953         estimate D2E/DX2                !
 ! D38   D(6,7,8,21)            -0.0008         estimate D2E/DX2                !
 ! D39   D(31,7,8,9)            -0.0013         estimate D2E/DX2                !
 ! D40   D(31,7,8,21)         -179.9974         estimate D2E/DX2                !
 ! D41   D(7,8,9,10)           179.9954         estimate D2E/DX2                !
 ! D42   D(7,8,9,32)             0.0061         estimate D2E/DX2                !
 ! D43   D(21,8,9,10)           -0.0086         estimate D2E/DX2                !
 ! D44   D(21,8,9,32)         -179.9979         estimate D2E/DX2                !
 ! D45   D(7,8,21,20)         -179.9955         estimate D2E/DX2                !
 ! D46   D(7,8,21,22)           -0.0047         estimate D2E/DX2                !
 ! D47   D(9,8,21,20)            0.0084         estimate D2E/DX2                !
 ! D48   D(9,8,21,22)          179.9992         estimate D2E/DX2                !
 ! D49   D(8,9,10,11)            0.0066         estimate D2E/DX2                !
 ! D50   D(8,9,10,19)          179.9987         estimate D2E/DX2                !
 ! D51   D(32,9,10,11)         179.9957         estimate D2E/DX2                !
 ! D52   D(32,9,10,19)          -0.0123         estimate D2E/DX2                !
 ! D53   D(9,10,11,12)         179.9957         estimate D2E/DX2                !
 ! D54   D(9,10,11,20)          -0.0047         estimate D2E/DX2                !
 ! D55   D(19,10,11,12)          0.0032         estimate D2E/DX2                !
 ! D56   D(19,10,11,20)       -179.9972         estimate D2E/DX2                !
 ! D57   D(9,10,19,14)        -179.998          estimate D2E/DX2                !
 ! D58   D(9,10,19,18)           0.009          estimate D2E/DX2                !
 ! D59   D(11,10,19,14)         -0.0061         estimate D2E/DX2                !
 ! D60   D(11,10,19,18)       -179.9992         estimate D2E/DX2                !
 ! D61   D(10,11,12,13)         -0.0002         estimate D2E/DX2                !
 ! D62   D(10,11,12,33)        179.9988         estimate D2E/DX2                !
 ! D63   D(20,11,12,13)       -179.9998         estimate D2E/DX2                !
 ! D64   D(20,11,12,33)         -0.0007         estimate D2E/DX2                !
 ! D65   D(10,11,20,21)          0.0051         estimate D2E/DX2                !
 ! D66   D(10,11,20,39)        179.9982         estimate D2E/DX2                !
 ! D67   D(12,11,20,21)       -179.9953         estimate D2E/DX2                !
 ! D68   D(12,11,20,39)         -0.0022         estimate D2E/DX2                !
 ! D69   D(11,12,13,14)          0.0001         estimate D2E/DX2                !
 ! D70   D(11,12,13,34)        179.9944         estimate D2E/DX2                !
 ! D71   D(33,12,13,14)       -179.9989         estimate D2E/DX2                !
 ! D72   D(33,12,13,34)         -0.0047         estimate D2E/DX2                !
 ! D73   D(12,13,14,15)       -179.9987         estimate D2E/DX2                !
 ! D74   D(12,13,14,19)         -0.0031         estimate D2E/DX2                !
 ! D75   D(34,13,14,15)          0.0071         estimate D2E/DX2                !
 ! D76   D(34,13,14,19)       -179.9973         estimate D2E/DX2                !
 ! D77   D(13,14,15,16)       -179.9961         estimate D2E/DX2                !
 ! D78   D(13,14,15,35)         -0.0069         estimate D2E/DX2                !
 ! D79   D(19,14,15,16)          0.0083         estimate D2E/DX2                !
 ! D80   D(19,14,15,35)        179.9975         estimate D2E/DX2                !
 ! D81   D(13,14,19,10)          0.006          estimate D2E/DX2                !
 ! D82   D(13,14,19,18)        179.9997         estimate D2E/DX2                !
 ! D83   D(15,14,19,10)       -179.9984         estimate D2E/DX2                !
 ! D84   D(15,14,19,18)         -0.0048         estimate D2E/DX2                !
 ! D85   D(14,15,16,17)         -0.0123         estimate D2E/DX2                !
 ! D86   D(14,15,16,36)       -179.9973         estimate D2E/DX2                !
 ! D87   D(35,15,16,17)        179.9983         estimate D2E/DX2                !
 ! D88   D(35,15,16,36)          0.0132         estimate D2E/DX2                !
 ! D89   D(15,16,17,18)          0.0129         estimate D2E/DX2                !
 ! D90   D(15,16,17,37)        179.9988         estimate D2E/DX2                !
 ! D91   D(36,16,17,18)        179.9979         estimate D2E/DX2                !
 ! D92   D(36,16,17,37)         -0.0162         estimate D2E/DX2                !
 ! D93   D(16,17,18,19)         -0.0099         estimate D2E/DX2                !
 ! D94   D(16,17,18,38)        179.9917         estimate D2E/DX2                !
 ! D95   D(37,17,18,19)       -179.9958         estimate D2E/DX2                !
 ! D96   D(37,17,18,38)          0.0058         estimate D2E/DX2                !
 ! D97   D(17,18,19,10)        179.9989         estimate D2E/DX2                !
 ! D98   D(17,18,19,14)          0.0057         estimate D2E/DX2                !
 ! D99   D(38,18,19,10)         -0.0027         estimate D2E/DX2                !
 ! D100  D(38,18,19,14)       -179.996          estimate D2E/DX2                !
 ! D101  D(11,20,21,8)          -0.0069         estimate D2E/DX2                !
 ! D102  D(11,20,21,22)       -179.9975         estimate D2E/DX2                !
 ! D103  D(39,20,21,8)        -180.0            estimate D2E/DX2                !
 ! D104  D(39,20,21,22)          0.0094         estimate D2E/DX2                !
 ! D105  D(8,21,22,23)           0.0088         estimate D2E/DX2                !
 ! D106  D(8,21,22,40)        -179.9961         estimate D2E/DX2                !
 ! D107  D(20,21,22,23)        179.9993         estimate D2E/DX2                !
 ! D108  D(20,21,22,40)         -0.0055         estimate D2E/DX2                !
 ! D109  D(21,22,23,6)          -0.0073         estimate D2E/DX2                !
 ! D110  D(21,22,23,24)       -179.9985         estimate D2E/DX2                !
 ! D111  D(40,22,23,6)         179.9975         estimate D2E/DX2                !
 ! D112  D(40,22,23,24)          0.0063         estimate D2E/DX2                !
 ! D113  D(6,23,24,25)           0.0092         estimate D2E/DX2                !
 ! D114  D(6,23,24,41)        -179.9998         estimate D2E/DX2                !
 ! D115  D(22,23,24,25)       -179.9996         estimate D2E/DX2                !
 ! D116  D(22,23,24,41)         -0.0086         estimate D2E/DX2                !
 ! D117  D(23,24,25,4)          -0.0058         estimate D2E/DX2                !
 ! D118  D(23,24,25,26)        179.9975         estimate D2E/DX2                !
 ! D119  D(41,24,25,4)        -179.9968         estimate D2E/DX2                !
 ! D120  D(41,24,25,26)          0.0065         estimate D2E/DX2                !
 ! D121  D(4,25,26,1)            0.0001         estimate D2E/DX2                !
 ! D122  D(4,25,26,42)         179.9918         estimate D2E/DX2                !
 ! D123  D(24,25,26,1)         179.9969         estimate D2E/DX2                !
 ! D124  D(24,25,26,42)         -0.0114         estimate D2E/DX2                !
 --------------------------------------------------------------------------------
 Trust Radius=3.00D-01 FncErr=1.00D-07 GrdErr=1.00D-06 EigMax=2.50D+02 EigMin=1.00D-04
 Number of steps in this run=    252 maximum allowed number of steps=    252.
 GradGradGradGradGradGradGradGradGradGradGradGradGradGradGradGradGradGrad

                          Input orientation:                          
 ---------------------------------------------------------------------
 Center     Atomic      Atomic             Coordinates (Angstroms)
 Number     Number       Type             X           Y           Z
 ---------------------------------------------------------------------
      1          6           0        7.172300    0.628800   -0.273700
      2          6           0        6.947200    1.251600    0.949900
      3          6           0        5.646600    1.371500    1.441900
      4          6           0        4.554100    0.869400    0.715400
      5          6           0        3.239200    0.982200    1.196700
      6          6           0        2.146900    0.479700    0.469300
      7          6           0        0.831100    0.591900    0.949700
      8          6           0       -0.262800    0.089600    0.223000
      9          6           0       -1.582700    0.200400    0.701800
     10          6           0       -2.706800   -0.295900   -0.007600
     11          6           0       -2.444300   -0.924100   -1.249000
     12          6           0       -3.499100   -1.439000   -2.007500
     13          6           0       -4.813700   -1.344400   -1.560500
     14          6           0       -5.112400   -0.731900   -0.341400
     15          6           0       -6.450400   -0.652600    0.081500
     16          6           0       -6.787900   -0.049800    1.290000
     17          6           0       -5.788700    0.481200    2.090600
     18          6           0       -4.453800    0.408300    1.680400
     19          6           0       -4.068500   -0.197200    0.456900
     20          6           0       -1.128400   -1.036800   -1.730500
     21          6           0       -0.034000   -0.538100   -1.010500
     22          6           0        1.281000   -0.652000   -1.494200
     23          6           0        2.374800   -0.150600   -0.769000
     24          6           0        3.689700   -0.264000   -1.251800
     25          6           0        4.782400    0.237800   -0.525600
     26          6           0        6.097100    0.124900   -1.007300
     27          1           0        8.184200    0.534300   -0.658700
     28          1           0        7.782900    1.644700    1.522900
     29          1           0        5.490900    1.861600    2.400400
     30          1           0        3.063500    1.469500    2.154000
     31          1           0        0.654900    1.079200    1.907100
     32          1           0       -1.726200    0.691900    1.660300
     33          1           0       -3.309100   -1.923800   -2.963000
     34          1           0       -5.606000   -1.757900   -2.181000
     35          1           0       -7.247600   -1.064200   -0.534400
     36          1           0       -7.827100    0.003300    1.602500
     37          1           0       -6.040600    0.954200    3.036200
     38          1           0       -3.712300    0.840300    2.346000
     39          1           0       -0.951200   -1.524200   -2.688200
     40          1           0        1.455600   -1.139500   -2.451700
     41          1           0        3.866000   -0.751200   -2.209000
     42          1           0        6.293400   -0.358700   -1.961600
 ---------------------------------------------------------------------
                    Distance matrix (angstroms):
                    1          2          3          4          5
     1  C    0.000000
     2  C    1.391311   0.000000
     3  C    2.413016   1.395708   0.000000
     4  C    2.809124   2.434747   1.404800   0.000000
     5  C    4.213816   3.725956   2.450970   1.404755   0.000000
     6  C    5.082217   4.885661   3.740208   2.450927   1.405253
     7  C    6.458242   6.151576   4.902966   3.740673   2.451997
     8  C    7.471155   7.339123   6.168468   4.904393   3.742837
     9  C    8.819589   8.598010   7.360842   6.173173   4.909873
    10  C    9.925850   9.824015   8.640635   7.389271   6.199903
    11  C    9.789878   9.887826   8.830254   7.486863   6.474380
    12  C   11.007299  11.185291  10.170600   8.808912   7.844348
    13  C   12.215301  12.302849  11.216434   9.891224   8.824082
    14  C   12.360014  12.289657  11.106779   9.855060   8.663320
    15  C   13.687443  13.560080  12.340384  11.127324   9.889620
    16  C   14.063884  13.800807  12.516388  11.393685  10.080499
    17  C   13.175706  12.810069  11.488234  10.441043   9.085870
    18  C   11.791239  11.455461  10.149025   9.071169   7.729526
    19  C   11.294761  11.121498   9.890107   8.692162   7.439138
    20  C    8.590583   8.811165   7.859049   6.473549   5.632121
    21  C    7.337254   7.468825   6.475342   5.100044   4.230471
    22  C    6.151218   6.457797   5.636816   4.232041   3.707573
    23  C    4.885570   5.082089   4.231967   2.827223   2.427838
    24  C    3.725892   4.213767   3.709493   2.429333   2.784083
    25  C    2.434740   2.809137   2.429645   1.411071   2.429386
    26  C    1.395758   2.413038   2.784877   2.429573   3.709471
    27  H    1.086783   2.152274   3.398947   3.895904   5.300580
    28  H    2.152361   1.086854   2.155221   3.417352   4.603316
    29  H    3.390828   2.144029   1.087733   2.168244   2.700443
    30  H    4.845899   4.071911   2.681249   2.156752   1.088465
    31  H    6.887325   6.367024   5.021844   4.082637   2.681918
    32  H    9.106461   8.720424   7.407276   6.353464   4.995438
    33  H   11.117907  11.427407  10.510314   9.119348   8.284212
    34  H   13.138458  13.283164  12.228637  10.886665   9.856702
    35  H   14.521285  14.458853  13.270222  12.024181  10.823929
    36  H   15.129223  14.841296  13.543942  12.443118  11.116920
    37  H   13.625052  13.157661  11.802821  10.846242   9.460403
    38  H   11.197414  10.758402   9.417461   8.425739   7.047296
    39  H    8.743939   9.128284   8.305045   6.900880   6.239707
    40  H    6.367985   6.888099   6.247377   4.864864   4.581884
    41  H    4.072027   4.845993   4.583172   3.413494   3.872512
    42  H    2.143975   3.390775   3.872435   3.420486   4.593583
                    6          7          8          9         10
     6  C    0.000000
     7  C    1.405241   0.000000
     8  C    2.453466   1.406064   0.000000
     9  C    3.747263   2.457877   1.408425   0.000000
    10  C    4.938359   3.771120   2.484939   1.418860   0.000000
    11  C    5.099248   4.226202   2.820162   2.410908   1.415844
    12  C    6.457032   5.623186   4.217272   3.701422   2.435984
    13  C    7.476455   6.474112   5.093910   4.236009   2.819553
    14  C    7.404232   6.224514   4.950963   3.796871   2.467474
    15  C    8.680211   7.437929   6.233561   4.980651   3.761611
    16  C    8.988024   7.653545   6.613233   5.244300   4.289488
    17  C    8.099529   6.718308   5.846097   4.438249   3.808469
    18  C    6.711267   5.338333   4.448603   3.040410   2.529279
    19  C    6.252163   4.987145   3.823652   2.529281   1.442126
    20  C    4.226876   3.698077   2.415409   2.766430   2.451258
    21  C    2.825252   2.422330   1.402811   2.424010   2.865018
    22  C    2.426079   2.778911   2.425297   3.708070   4.270754
    23  C    1.408049   2.426571   2.828196   4.236539   5.140379
    24  C    2.428066   3.708202   4.233477   5.641846   6.516461
    25  C    2.827402   4.232572   5.102588   6.482469   7.526040
    26  C    4.232057   5.637259   6.477902   7.868040   8.870464
    27  H    6.142016   7.527174   8.504526   9.866853  10.941985
    28  H    5.850794   7.054394   8.297070   9.511817  10.776927
    29  H    4.101357   5.042857   6.402040   7.461946   8.812239
    30  H    2.158257   2.684051   4.086215   5.030574   6.409798
    31  H    2.157019   1.088633   2.158165   2.689218   4.105850
    32  H    4.057636   2.656075   2.137788   1.086686   2.172376
    33  H    6.879348   6.227297   4.846062   4.574215   3.427421
    34  H    8.493433   7.533863   6.143473   5.322820   3.907233
    35  H    9.573279   8.379177   7.119855   5.934517   4.635371
    36  H   10.049466   8.702702   7.689545   6.312103   5.375818
    37  H    8.593561   7.190619   6.484181   5.088272   4.684196
    38  H    6.162975   4.759605   4.119433   2.765513   2.800252
    39  H    4.856300   4.570425   3.399019   3.855533   3.431686
    40  H    3.410564   3.867463   3.408461   4.579428   4.900088
    41  H    3.412288   4.581694   4.865034   6.250330   6.946593
    42  H    4.879104   6.262270   6.925114   8.333021   9.210085
                   11         12         13         14         15
    11  C    0.000000
    12  C    1.397515   0.000000
    13  C    2.426467   1.391737   0.000000
    14  C    2.824790   2.424586   1.396633   0.000000
    15  C    4.229986   3.700340   2.419409   1.405481   0.000000
    16  C    5.106641   4.859999   3.701190   2.435986   1.392030
    17  C    4.930802   5.071869   4.196900   2.800646   2.399965
    18  C    3.794043   4.233743   3.702015   2.412775   2.769188
    19  C    2.465057   2.817721   2.437477   1.418772   2.453928
    20  C    1.405751   2.420478   3.702020   4.230227   5.635125
    21  C    2.452636   3.716524   4.878335   5.125954   6.509667
    22  C    3.743263   4.871571   6.134263   6.496991   7.890334
    23  C    4.904327   6.139752   7.329813   7.521896   8.880288
    24  C    6.169416   7.323288   8.577317   8.861418  10.234761
    25  C    7.355169   8.578515   9.780568   9.943908  11.284378
    26  C    8.608968   9.774111  11.023177  11.261901  12.618627
    27  H   10.744319  11.925296  13.163896  13.360521  14.701297
    28  H   10.903109  12.217056  13.308509  13.244342  14.489377
    29  H    9.167641  10.542469  11.495736  11.254940  12.421479
    30  H    6.902579   8.297299   9.152367   8.827147   9.965584
    31  H    4.855844   6.238681   6.914020   6.449619   7.537721
    32  H    3.404578   4.597463   4.904358   4.183343   5.159298
    33  H    2.164503   1.088169   2.136944   3.397838   4.555513
    34  H    3.400028   2.137949   1.087999   2.163434   2.655863
    35  H    4.858186   4.044966   2.656174   2.169505   1.088244
    36  H    6.161628   5.817552   4.571810   3.418898   2.153822
    37  H    5.901214   6.133966   5.283796   3.887502   3.388214
    38  H    4.200590   4.918702   4.609418   3.413827   3.854076
    39  H    2.158880   2.638637   4.027771   4.842602   6.218692
    40  H    4.086821   4.983580   6.335641   6.910726   8.316190
    41  H    6.385247   7.399890   8.724083   9.170604  10.568076
    42  H    8.784923   9.852016  11.157964  11.526344  12.909883
                   16         17         18         19         20
    16  C    0.000000
    17  C    1.386118   0.000000
    18  C    2.410454   1.398405   0.000000
    19  C    2.847967   2.467446   1.418463   0.000000
    20  C    6.490572   6.214783   4.978036   3.759499   0.000000
    21  C    7.151636   6.616069   5.260347   4.306584   1.401718
    22  C    8.556960   8.007221   6.640049   5.712336   2.451350
    23  C    9.391736   8.672901   7.276105   6.559049   3.739284
    24  C   10.783633  10.078047   8.681381   7.944418   4.903107
    25  C   11.715415  10.892745   9.497521   8.915883   6.165545
    26  C   13.089360  12.288050  10.891535  10.275556   7.353939
    27  H   15.109678  14.240906  12.853261  12.325109   9.504821
    28  H   14.670848  13.633207  12.300013  12.040957   9.858312
    29  H   12.476192  11.367975  10.076087   9.969853   8.323472
    30  H   10.005241   8.907424   7.606592   7.518209   6.240425
    31  H    7.553193   6.473890   5.157549   5.103213   4.570530
    32  H    5.129137   4.090655   2.742378   2.779396   3.852699
    33  H    5.805337   6.121382   5.320732   3.905580   2.657306
    34  H    4.045038   4.826336   4.574975   3.429024   4.557613
    35  H    2.137467   3.377466   3.857320   3.441081   6.235063
    36  H    1.086468   2.149815   3.398418   3.934422   7.554024
    37  H    2.148415   1.086896   2.157344   3.444951   7.128479
    38  H    3.371458   2.122644   1.086034   2.184487   5.178600
    39  H    7.215746   7.089426   5.923464   4.622785   1.089104
    40  H    9.118281   8.702818   7.375022   6.313760   2.684722
    41  H   11.235682  10.640423   9.256940   8.388697   5.025392
    42  H   13.482905  12.771174  11.373423  10.641626   7.456295
                   21         22         23         24         25
    21  C    0.000000
    22  C    1.405761   0.000000
    23  C    2.451692   1.404890   0.000000
    24  C    3.741564   2.451762   1.405318   0.000000
    25  C    4.902536   3.740285   2.450844   1.404693   0.000000
    26  C    6.166844   4.902598   3.740081   2.450836   1.404713
    27  H    8.295337   7.054044   5.850674   4.603214   3.417290
    28  H    8.502156   7.526781   6.141942   5.300602   3.895988
    29  H    6.922234   6.261737   4.878947   4.593589   3.420552
    30  H    4.861998   4.581204   3.412178   3.872547   3.413496
    31  H    3.406264   3.867544   3.410568   4.581795   4.864385
    32  H    3.392582   4.560722   4.840403   6.223025   6.880860
    33  H    4.056932   4.984362   6.345439   7.393669   8.722718
    34  H    5.822814   7.008957   8.262586   9.460718  10.707101
    35  H    7.248412   8.592330   9.668520  10.989973  12.100255
    36  H    8.237311   9.642430  10.475040  11.868242  12.789968
    37  H    7.394727   8.758438   9.301564  10.702789  11.416522
    38  H    5.166814   6.473572   6.909261   8.303809   8.987159
    39  H    2.151355   2.677515   4.078282   5.018894   6.376178
    40  H    2.158158   1.088553   2.157390   2.682809   4.083432
    41  H    4.085562   2.683841   2.158240   1.088429   2.156791
    42  H    6.400997   5.042682   4.101344   2.700377   2.168186
                   26         27         28         29         30
    26  C    0.000000
    27  H    2.155253   0.000000
    28  H    3.399062   2.480606   0.000000
    29  H    3.872470   4.286453   2.463801   0.000000
    30  H    4.583066   5.916709   4.764632   2.471179   0.000000
    31  H    6.246756   7.973118   7.160711   4.923656   2.452478
    32  H    8.285023  10.179324   9.557703   7.348638   4.877461
    33  H    9.823367  11.976978  12.485590  10.978858   8.849192
    34  H   11.911551  14.062048  14.302420  12.539186  10.216093
    35  H   13.405917  15.514867  15.410599  13.395624  10.952895
    36  H   14.167187  16.178897  15.696262  13.470674  11.002684
    37  H   12.820351  14.702841  13.923219  11.584607   9.161247
    38  H   10.391378  12.273898  11.552670   9.259854   6.807659
    39  H    7.431251   9.581849  10.200970   8.880211   6.966129
    40  H    5.022800   7.161740   7.973954   6.988070   5.532151
    41  H    2.681313   4.764745   5.916884   5.541985   4.960976
    42  H    1.087700   2.463762   4.286486   4.959918   5.541907
                   31         32         33         34         35
    31  H    0.000000
    32  H    2.424984   0.000000
    33  H    6.960544   5.542776   0.000000
    34  H    7.997535   5.984142   2.432035   0.000000
    35  H    8.544272   6.195680   4.706250   2.426389   0.000000
    36  H    8.555388   6.139910   6.705955   4.727577   2.457991
    37  H    6.791186   4.536072   7.192661   5.896061   4.275508
    38  H    4.395696   2.106371   5.999025   5.552519   4.941879
    39  H    5.520329   4.941779   2.407257   4.688180   6.670465
    40  H    4.956096   5.512388   4.855813   7.093792   8.912205
    41  H    5.532071   6.951742   7.309279   9.525388  11.243414
    42  H    6.987638   8.862049   9.780611  11.983389  13.634270
                   36         37         38         39         40
    36  H    0.000000
    37  H    2.480179   0.000000
    38  H    4.264380   2.431117   0.000000
    39  H    8.247507   8.050665   6.209485   0.000000
    40  H   10.193677   9.523321   7.324256   2.448798   0.000000
    41  H   12.321745  11.338485   8.983959   4.902303   2.453509
    42  H   14.567854  13.372706  10.959336   7.373640   4.924851
                   41         42
    41  H    0.000000
    42  H    2.471343   0.000000
 Stoichiometry    C26H16
 Framework group  CS[SG(C26H16)]
 Deg. of freedom    81
 Full point group                 CS      NOp   2
 Largest Abelian subgroup         CS      NOp   2
 Largest concise Abelian subgroup C1      NOp   1
                         Standard orientation:                         
 ---------------------------------------------------------------------
 Center     Atomic      Atomic             Coordinates (Angstroms)
 Number     Number       Type             X           Y           Z
 ---------------------------------------------------------------------
      1          6           0       -1.394632   -7.080108   -0.000000
      2          6           0       -2.703498   -6.608286    0.000000
      3          6           0       -2.948888   -5.234320    0.000000
      4          6           0       -1.887108   -4.314490    0.000000
      5          6           0       -2.117324   -2.928728    0.000000
      6          6           0       -1.054615   -2.009279    0.000000
      7          6           0       -1.283608   -0.622821    0.000000
      8          6           0       -0.221307    0.298338    0.000000
      9          6           0       -0.447516    1.688479    0.000000
     10          6           0        0.602499    2.642750    0.000000
     11          6           0        1.922494    2.130667   -0.000000
     12          6           0        3.011092    3.007024   -0.000000
     13          6           0        2.819006    4.385441   -0.000000
     14          6           0        1.532222    4.928367   -0.000000
     15          6           0        1.372391    6.324730    0.000000
     16          6           0        0.106361    6.903448    0.000000
     17          6           0       -1.016083    6.090158    0.000000
     18          6           0       -0.869669    4.699439    0.000000
     19          6           0        0.401915    4.070858    0.000000
     20          6           0        2.152653    0.743885   -0.000000
     21          6           0        1.097743   -0.179140   -0.000000
     22          6           0        1.330530   -1.565493   -0.000000
     23          6           0        0.269967   -2.486863   -0.000000
     24          6           0        0.501759   -3.872933   -0.000000
     25          6           0       -0.559656   -4.793020   -0.000000
     26          6           0       -0.329012   -6.178668   -0.000000
     27          1           0       -1.201231   -8.149544   -0.000000
     28          1           0       -3.534856   -7.308354    0.000000
     29          1           0       -3.978973   -4.884911    0.000000
     30          1           0       -3.141428   -2.559993    0.000000
     31          1           0       -2.307708   -0.253576    0.000000
     32          1           0       -1.480473    2.025949    0.000000
     33          1           0        4.029872    2.624664   -0.000000
     34          1           0        3.693110    5.033271   -0.000000
     35          1           0        2.242517    6.978301   -0.000000
     36          1           0        0.000000    7.984698    0.000000
     37          1           0       -2.009535    6.531062    0.000000
     38          1           0       -1.782211    4.110596    0.000000
     39          1           0        3.176878    0.373600   -0.000000
     40          1           0        2.355100   -1.933193   -0.000000
     41          1           0        1.525621   -4.242235   -0.000000
     42          1           0        0.687025   -6.566947   -0.000000
 ---------------------------------------------------------------------
 Rotational constants (GHZ):           0.8331035           0.0798671           0.0728803
 Standard basis: def2SVPP (5D, 7F)
 There are   318 symmetry adapted cartesian basis functions of A'  symmetry.
 There are   104 symmetry adapted cartesian basis functions of A"  symmetry.
 There are   292 symmetry adapted basis functions of A'  symmetry.
 There are   104 symmetry adapted basis functions of A"  symmetry.
   396 basis functions,   714 primitive gaussians,   422 cartesian basis functions
    86 alpha electrons       86 beta electrons
       nuclear repulsion energy      1926.1647525721 Hartrees.
 NAtoms=   42 NActive=   42 NUniq=   42 SFac= 1.00D+00 NAtFMM=   60 NAOKFM=F Big=F
 Integral buffers will be    131072 words long.
 Raffenetti 2 integral format.
 Two-electron integral symmetry is turned on.
 Nuclear repulsion after empirical dispersion term =     1926.0560177116 Hartrees.
 One-electron integrals computed using PRISM.
   2 Symmetry operations used in ECPInt.
 ECPInt:  NShTT=   17766 NPrTT=   71262 LenC2=   14679 LenP2D=   38887.
 LDataN:  DoStor=T MaxTD1= 4 Len=   56
 NBasis=   396 RedAO= T EigKep=  2.07D-04  NBF=   292   104
 NBsUse=   396 1.00D-06 EigRej= -1.00D+00 NBFU=   292   104
 ExpMin= 1.22D-01 ExpMax= 1.24D+03 ExpMxC= 1.86D+02 IAcc=3 IRadAn=         5 AccDes= 0.00D+00
 Harris functional with IExCor=  402 and IRadAn=       5 diagonalized for initial guess.
 HarFok:  IExCor=  402 AccDes= 0.00D+00 IRadAn=         5 IDoV= 1 UseB2=F ITyADJ=14
 ICtDFT=  3500011 ScaDFX=  1.000000  1.000000  1.000000  1.000000
 FoFCou: FMM=F IPFlag=           0 FMFlag=      100000 FMFlg1=           0
         NFxFlg=           0 DoJE=T BraDBF=F KetDBF=T FulRan=T
         wScrn=  0.000000 ICntrl=       500 IOpCl=  0 I1Cent=   200000004 NGrid=           0
         NMat0=    1 NMatS0=      1 NMatT0=    0 NMatD0=    1 NMtDS0=    0 NMtDT0=    0
 Petite list used in FoFCou.
 Initial guess orbital symmetries:
       Occupied  (A') (A') (A') (A') (A') (A') (A') (A') (A') (A')
                 (A') (A') (A') (A') (A') (A') (A') (A') (A') (A')
                 (A') (A') (A') (A') (A') (A') (A') (A') (A') (A')
                 (A') (A') (A') (A') (A') (A') (A') (A') (A') (A')
                 (A') (A') (A') (A') (A') (A') (A') (A') (A') (A')
                 (A') (A') (A') (A') (A') (A') (A') (A') (A') (A')
                 (A') (A') (A') (A') (A') (A') (A") (A') (A") (A')
                 (A") (A') (A') (A') (A') (A") (A') (A") (A") (A")
                 (A") (A") (A") (A") (A") (A")
       Virtual   (A") (A") (A") (A") (A") (A") (A") (A") (A") (A")
                 (A') (A') (A') (A') (A') (A") (A') (A') (A') (A')
                 (A") (A') (A') (A') (A") (A') (A') (A') (A') (A')
                 (A') (A') (A') (A') (A') (A') (A') (A') (A') (A')
                 (A') (A') (A') (A') (A') (A') (A') (A') (A') (A')
                 (A') (A') (A') (A') (A') (A') (A') (A') (A') (A')
                 (A') (A') (A') (A') (A') (A') (A") (A') (A') (A")
                 (A') (A') (A') (A") (A') (A") (A') (A") (A') (A")
                 (A') (A') (A') (A') (A") (A") (A') (A') (A') (A")
                 (A") (A") (A') (A") (A") (A") (A") (A") (A') (A')
                 (A') (A') (A') (A") (A') (A') (A') (A") (A') (A')
                 (A') (A') (A') (A') (A') (A") (A') (A") (A') (A')
                 (A") (A') (A') (A') (A") (A') (A') (A') (A') (A')
                 (A") (A') (A') (A") (A') (A') (A') (A") (A') (A')
                 (A") (A') (A') (A') (A') (A') (A') (A') (A') (A')
                 (A') (A') (A') (A') (A') (A') (A') (A') (A") (A")
                 (A') (A") (A') (A') (A") (A") (A") (A') (A') (A')
                 (A') (A') (A') (A') (A") (A') (A") (A') (A") (A')
                 (A") (A') (A") (A") (A") (A') (A") (A") (A") (A")
                 (A") (A') (A") (A") (A") (A') (A') (A') (A') (A')
                 (A') (A') (A') (A') (A') (A') (A') (A') (A') (A")
                 (A') (A') (A") (A') (A') (A') (A') (A") (A') (A')
                 (A") (A") (A') (A') (A') (A') (A") (A') (A') (A")
                 (A') (A') (A") (A') (A') (A') (A") (A') (A') (A')
                 (A') (A') (A") (A') (A') (A") (A") (A') (A") (A')
                 (A') (A') (A") (A') (A") (A') (A") (A") (A") (A')
                 (A") (A") (A") (A') (A") (A") (A") (A') (A") (A')
                 (A') (A') (A') (A') (A") (A') (A') (A') (A') (A")
                 (A") (A') (A') (A') (A') (A") (A') (A") (A') (A')
                 (A") (A') (A') (A') (A') (A') (A') (A') (A') (A')
                 (A') (A') (A') (A') (A') (A') (A') (A') (A') (A')
 The electronic state of the initial guess is 1-A'.
 Requested convergence on RMS density matrix=1.00D-08 within 128 cycles.
 Requested convergence on MAX density matrix=1.00D-06.
 Requested convergence on             energy=1.00D-06.
 No special actions if energy rises.
 Integral accuracy reduced to 1.0D-05 until final iterations.
 Initial convergence to 1.0D-05 achieved.  Increase integral accuracy.
 SCF Done:  E(RB3LYP) =  -999.793008987     A.U. after   16 cycles
            NFock= 16  Conv=0.34D-08     -V/T= 2.0102

 **********************************************************************

            Population analysis using the SCF Density.

 **********************************************************************

 Orbital symmetries:
       Occupied  (A') (A') (A') (A') (A') (A') (A') (A') (A') (A')
                 (A') (A') (A') (A') (A') (A') (A') (A') (A') (A')
                 (A') (A') (A') (A') (A') (A') (A') (A') (A') (A')
                 (A') (A') (A') (A') (A') (A') (A') (A') (A') (A')
                 (A') (A') (A') (A') (A') (A') (A') (A') (A') (A')
                 (A') (A') (A') (A') (A') (A') (A') (A') (A') (A')
                 (A') (A") (A') (A') (A') (A") (A') (A') (A") (A')
                 (A') (A') (A") (A') (A') (A') (A') (A") (A") (A")
                 (A") (A") (A") (A") (A") (A")
       Virtual   (A") (A") (A") (A") (A") (A") (A") (A") (A') (A')
                 (A') (A") (A') (A') (A') (A') (A') (A') (A") (A')
                 (A') (A') (A') (A") (A') (A') (A") (A') (A") (A')
                 (A') (A') (A') (A') (A') (A') (A') (A') (A') (A')
                 (A') (A') (A') (A') (A') (A') (A') (A') (A') (A')
                 (A') (A') (A') (A') (A') (A') (A') (A') (A') (A')
                 (A') (A') (A') (A') (A") (A') (A") (A') (A') (A')
                 (A") (A') (A') (A") (A') (A") (A') (A') (A") (A')
                 (A') (A') (A") (A') (A") (A') (A') (A") (A") (A')
                 (A") (A') (A") (A") (A") (A") (A') (A") (A') (A")
                 (A") (A') (A') (A') (A') (A') (A') (A") (A') (A')
                 (A') (A") (A') (A') (A") (A') (A') (A') (A") (A')
                 (A') (A') (A') (A') (A") (A') (A') (A") (A') (A')
                 (A') (A") (A') (A') (A') (A') (A') (A') (A") (A')
                 (A') (A') (A') (A') (A') (A') (A') (A') (A') (A')
                 (A') (A') (A') (A') (A') (A') (A') (A') (A') (A')
                 (A') (A") (A") (A") (A') (A") (A') (A") (A") (A')
                 (A') (A') (A') (A') (A') (A') (A') (A") (A') (A")
                 (A") (A") (A') (A") (A") (A") (A") (A') (A") (A')
                 (A") (A") (A") (A') (A") (A") (A') (A") (A') (A')
                 (A') (A') (A') (A') (A') (A') (A') (A') (A") (A')
                 (A') (A") (A') (A') (A') (A') (A") (A') (A') (A")
                 (A") (A') (A') (A") (A') (A') (A') (A") (A') (A')
                 (A') (A') (A") (A') (A') (A") (A') (A') (A') (A')
                 (A') (A') (A") (A') (A') (A") (A") (A') (A") (A')
                 (A') (A') (A") (A') (A") (A") (A') (A") (A") (A")
                 (A') (A") (A") (A") (A") (A') (A") (A') (A") (A')
                 (A') (A') (A') (A") (A') (A') (A') (A') (A') (A")
                 (A") (A') (A') (A') (A") (A') (A') (A") (A") (A')
                 (A') (A') (A') (A') (A') (A') (A') (A') (A') (A')
                 (A') (A') (A') (A') (A') (A') (A') (A') (A') (A')
 The electronic state is 1-A'.
 Alpha  occ. eigenvalues --  -10.20295 -10.20198 -10.19686 -10.19664 -10.19626
 Alpha  occ. eigenvalues --  -10.19626 -10.19616 -10.19587 -10.19564 -10.19502
 Alpha  occ. eigenvalues --  -10.19329 -10.19275 -10.19162 -10.19097 -10.19063
 Alpha  occ. eigenvalues --  -10.19060 -10.19053 -10.19048 -10.19009 -10.18998
 Alpha  occ. eigenvalues --  -10.18995 -10.18981 -10.18969 -10.18927 -10.18894
 Alpha  occ. eigenvalues --  -10.18884  -0.89245  -0.88110  -0.86250  -0.83733
 Alpha  occ. eigenvalues --   -0.81208  -0.78755  -0.78189  -0.77022  -0.75576
 Alpha  occ. eigenvalues --   -0.74678  -0.72393  -0.71583  -0.67857  -0.67235
 Alpha  occ. eigenvalues --   -0.63150  -0.62502  -0.61501  -0.60862  -0.59652
 Alpha  occ. eigenvalues --   -0.59000  -0.57439  -0.53456  -0.52854  -0.52128
 Alpha  occ. eigenvalues --   -0.51133  -0.49749  -0.48405  -0.47749  -0.46293
 Alpha  occ. eigenvalues --   -0.45597  -0.45193  -0.44630  -0.43755  -0.42934
 Alpha  occ. eigenvalues --   -0.42536  -0.42021  -0.41928  -0.41597  -0.41383
 Alpha  occ. eigenvalues --   -0.40644  -0.40545  -0.39718  -0.38338  -0.38152
 Alpha  occ. eigenvalues --   -0.37445  -0.35728  -0.35340  -0.35109  -0.34201
 Alpha  occ. eigenvalues --   -0.33598  -0.33259  -0.32476  -0.31143  -0.29898
 Alpha  occ. eigenvalues --   -0.28556  -0.26777  -0.25806  -0.23146  -0.21882
 Alpha  occ. eigenvalues --   -0.17379
 Alpha virt. eigenvalues --   -0.10084  -0.04887  -0.04221  -0.01045  -0.00136
 Alpha virt. eigenvalues --    0.01776   0.02928   0.03785   0.06315   0.06579
 Alpha virt. eigenvalues --    0.06601   0.07633   0.07728   0.08263   0.09383
 Alpha virt. eigenvalues --    0.09638   0.10989   0.11643   0.11763   0.12451
 Alpha virt. eigenvalues --    0.13310   0.14462   0.14957   0.16513   0.16798
 Alpha virt. eigenvalues --    0.17765   0.20195   0.20866   0.22048   0.22537
 Alpha virt. eigenvalues --    0.23369   0.24796   0.25864   0.26168   0.26507
 Alpha virt. eigenvalues --    0.26938   0.27826   0.28389   0.28458   0.28830
 Alpha virt. eigenvalues --    0.29314   0.30224   0.30713   0.31477   0.31839
 Alpha virt. eigenvalues --    0.32689   0.32828   0.33611   0.34534   0.35029
 Alpha virt. eigenvalues --    0.35836   0.36064   0.36645   0.37160   0.37664
 Alpha virt. eigenvalues --    0.37885   0.38529   0.39088   0.40216   0.41604
 Alpha virt. eigenvalues --    0.42419   0.42891   0.43579   0.43905   0.44367
 Alpha virt. eigenvalues --    0.44903   0.45314   0.45375   0.46197   0.46600
 Alpha virt. eigenvalues --    0.46782   0.47297   0.47513   0.47706   0.47710
 Alpha virt. eigenvalues --    0.48699   0.48849   0.49247   0.49629   0.50031
 Alpha virt. eigenvalues --    0.50478   0.50786   0.51338   0.51811   0.51938
 Alpha virt. eigenvalues --    0.52039   0.54234   0.54437   0.55068   0.55130
 Alpha virt. eigenvalues --    0.55512   0.56258   0.57677   0.58484   0.59193
 Alpha virt. eigenvalues --    0.61172   0.61348   0.61931   0.64410   0.64447
 Alpha virt. eigenvalues --    0.65263   0.65553   0.66282   0.66866   0.67124
 Alpha virt. eigenvalues --    0.67350   0.67647   0.68530   0.68653   0.69013
 Alpha virt. eigenvalues --    0.69373   0.69653   0.69893   0.70559   0.70911
 Alpha virt. eigenvalues --    0.71223   0.71811   0.72550   0.72644   0.73547
 Alpha virt. eigenvalues --    0.73879   0.74242   0.74997   0.75384   0.75693
 Alpha virt. eigenvalues --    0.76322   0.77434   0.78321   0.78340   0.78643
 Alpha virt. eigenvalues --    0.79956   0.80110   0.80208   0.80980   0.81299
 Alpha virt. eigenvalues --    0.81586   0.82117   0.82817   0.82982   0.83763
 Alpha virt. eigenvalues --    0.85671   0.86374   0.87398   0.88811   0.89603
 Alpha virt. eigenvalues --    0.91572   0.94285   0.95976   0.98344   1.00259
 Alpha virt. eigenvalues --    1.03860   1.08053   1.10443   1.11280   1.11769
 Alpha virt. eigenvalues --    1.13046   1.15271   1.17033   1.19549   1.19952
 Alpha virt. eigenvalues --    1.20828   1.21101   1.21306   1.22645   1.23629
 Alpha virt. eigenvalues --    1.24079   1.24316   1.25064   1.26446   1.27080
 Alpha virt. eigenvalues --    1.27598   1.28438   1.29147   1.30032   1.32217
 Alpha virt. eigenvalues --    1.33471   1.34281   1.34641   1.35451   1.36453
 Alpha virt. eigenvalues --    1.37871   1.38805   1.39322   1.40035   1.41199
 Alpha virt. eigenvalues --    1.42025   1.44029   1.44318   1.45622   1.46454
 Alpha virt. eigenvalues --    1.46756   1.47979   1.48488   1.48636   1.49265
 Alpha virt. eigenvalues --    1.49368   1.49658   1.49912   1.51572   1.52513
 Alpha virt. eigenvalues --    1.56194   1.67797   1.69106   1.70500   1.71564
 Alpha virt. eigenvalues --    1.72071   1.74304   1.75182   1.75599   1.77299
 Alpha virt. eigenvalues --    1.80407   1.81354   1.81580   1.82723   1.83357
 Alpha virt. eigenvalues --    1.83732   1.84294   1.85026   1.86064   1.86839
 Alpha virt. eigenvalues --    1.87040   1.87142   1.88171   1.89023   1.89068
 Alpha virt. eigenvalues --    1.90087   1.90318   1.95088   1.95265   1.95717
 Alpha virt. eigenvalues --    1.98351   2.00390   2.00896   2.02667   2.05545
 Alpha virt. eigenvalues --    2.06458   2.06474   2.07733   2.08180   2.09791
 Alpha virt. eigenvalues --    2.11067   2.13535   2.14532   2.16290   2.17481
 Alpha virt. eigenvalues --    2.18611   2.18760   2.19135   2.20347   2.21222
 Alpha virt. eigenvalues --    2.21780   2.22942   2.23664   2.26327   2.26820
 Alpha virt. eigenvalues --    2.27029   2.27944   2.28002   2.29066   2.30766
 Alpha virt. eigenvalues --    2.30910   2.33094   2.33847   2.34729   2.35077
 Alpha virt. eigenvalues --    2.35370   2.36755   2.40020   2.42489   2.46672
 Alpha virt. eigenvalues --    2.47848   2.48548   2.54435   2.55901   2.57166
 Alpha virt. eigenvalues --    2.58281   2.60603   2.61259   2.61580   2.61583
 Alpha virt. eigenvalues --    2.62447   2.63549   2.63778   2.64614   2.66960
 Alpha virt. eigenvalues --    2.67723   2.68355   2.68791   2.69981   2.71032
 Alpha virt. eigenvalues --    2.71575   2.72844   2.77395   2.80842   2.82339
 Alpha virt. eigenvalues --    2.85047   2.86500   2.89447   2.91897   2.92590
 Alpha virt. eigenvalues --    2.93843   2.98621   3.02819   3.08196   3.23717
 Alpha virt. eigenvalues --    3.34275   3.37731   3.46445   3.51155   3.53012
          Condensed to atoms (all electrons):
               1          2          3          4          5          6
     1  C    5.244504   0.132220   0.146862  -0.156336  -0.002268   0.000308
     2  C    0.132220   5.244722   0.229758   0.142737   0.019697  -0.001339
     3  C    0.146862   0.229758   5.459190   0.197217  -0.159438   0.019218
     4  C   -0.156336   0.142737   0.197217   5.429400   0.232738   0.143630
     5  C   -0.002268   0.019697  -0.159438   0.232738   5.740266   0.207498
     6  C    0.000308  -0.001339   0.019218   0.143630   0.207498   5.414956
     7  C   -0.000005   0.000016  -0.000914   0.020422  -0.163623   0.213014
     8  C    0.000000  -0.000000   0.000011  -0.001461   0.020155   0.143807
     9  C    0.000000  -0.000000  -0.000000   0.000012  -0.000960   0.020208
    10  C   -0.000000  -0.000000  -0.000000   0.000000   0.000007  -0.001242
    11  C    0.000000  -0.000000   0.000000   0.000000  -0.000005   0.000250
    12  C    0.000000  -0.000000  -0.000000   0.000000   0.000000  -0.000003
    13  C   -0.000000   0.000000  -0.000000  -0.000000  -0.000000   0.000000
    14  C    0.000000   0.000000   0.000000  -0.000000   0.000000  -0.000000
    15  C   -0.000000  -0.000000   0.000000   0.000000  -0.000000  -0.000000
    16  C    0.000000   0.000000  -0.000000  -0.000000   0.000000  -0.000000
    17  C    0.000000  -0.000000   0.000000   0.000000  -0.000000   0.000000
    18  C    0.000000  -0.000000  -0.000000   0.000000  -0.000000   0.000001
    19  C   -0.000000   0.000000  -0.000000  -0.000000   0.000000   0.000001
    20  C   -0.000000   0.000000   0.000000  -0.000004   0.000111  -0.001498
    21  C   -0.000000   0.000000  -0.000003   0.000257  -0.001327  -0.136064
    22  C    0.000016  -0.000005   0.000102  -0.001685   0.024352   0.032802
    23  C   -0.001340   0.000308  -0.001653  -0.132989   0.032526  -0.051219
    24  C    0.019710  -0.002267   0.025651   0.027663  -0.144826   0.032361
    25  C    0.142824  -0.156314   0.045317  -0.036378   0.027578  -0.132859
    26  C    0.229710   0.146853  -0.175846   0.045360   0.025671  -0.001667
    27  H    0.436399  -0.085073   0.015132  -0.001437   0.000044  -0.000001
    28  H   -0.085057   0.436383  -0.076649   0.015780  -0.000493   0.000009
    29  H    0.015490  -0.081040   0.437736  -0.079270  -0.021960   0.000805
    30  H   -0.000030   0.000608  -0.018659  -0.083041   0.439510  -0.082618
    31  H   -0.000000   0.000000  -0.000041   0.000741  -0.019622  -0.083668
    32  H    0.000000   0.000000   0.000000   0.000001  -0.000045   0.000659
    33  H    0.000000   0.000000   0.000000   0.000000   0.000000  -0.000000
    34  H    0.000000  -0.000000   0.000000  -0.000000   0.000000   0.000000
    35  H    0.000000   0.000000   0.000000  -0.000000   0.000000  -0.000000
    36  H    0.000000   0.000000   0.000000   0.000000  -0.000000   0.000000
    37  H   -0.000000   0.000000  -0.000000   0.000000  -0.000000  -0.000000
    38  H    0.000000   0.000000   0.000000  -0.000000   0.000000   0.000001
    39  H    0.000000   0.000000   0.000000  -0.000000   0.000001   0.000009
    40  H    0.000000  -0.000000   0.000001  -0.000001  -0.000381   0.018013
    41  H    0.000609  -0.000030  -0.000301   0.017917  -0.002292   0.018003
    42  H   -0.081065   0.015491  -0.002072   0.017511  -0.000329  -0.000010
               7          8          9         10         11         12
     1  C   -0.000005   0.000000   0.000000  -0.000000   0.000000   0.000000
     2  C    0.000016  -0.000000  -0.000000  -0.000000  -0.000000  -0.000000
     3  C   -0.000914   0.000011  -0.000000  -0.000000   0.000000  -0.000000
     4  C    0.020422  -0.001461   0.000012   0.000000   0.000000   0.000000
     5  C   -0.163623   0.020155  -0.000960   0.000007  -0.000005   0.000000
     6  C    0.213014   0.143807   0.020208  -0.001242   0.000250  -0.000003
     7  C    5.753779   0.222631  -0.157614   0.018597  -0.001630   0.000091
     8  C    0.222631   5.401954   0.230757   0.120726  -0.147770  -0.001597
     9  C   -0.157614   0.230757   5.712776   0.290419   0.012526   0.026079
    10  C    0.018597   0.120726   0.290419   5.546121   0.029342   0.028008
    11  C   -0.001630  -0.147770   0.012526   0.029342   5.499065   0.144639
    12  C    0.000091  -0.001597   0.026079   0.028008   0.144639   5.521026
    13  C   -0.000004   0.000071  -0.003442  -0.133241   0.156217   0.191837
    14  C    0.000010   0.000445   0.022134   0.004423  -0.171190   0.156394
    15  C    0.000000  -0.000003  -0.000248   0.026584  -0.001066   0.019293
    16  C   -0.000000   0.000007   0.000014  -0.004225  -0.000007  -0.001460
    17  C   -0.000001  -0.000099   0.000325   0.022267   0.000293   0.000216
    18  C   -0.000056   0.000284  -0.029276  -0.147797   0.022024  -0.003821
    19  C   -0.000550   0.023183  -0.148047   0.201813   0.003110  -0.137302
    20  C    0.025005   0.035081  -0.147925   0.033052   0.238521  -0.160567
    21  C    0.032667  -0.064382   0.024827  -0.132505   0.152363   0.022394
    22  C   -0.149353   0.033204   0.025191  -0.001254   0.020119  -0.001064
    23  C    0.031947  -0.134201  -0.001698   0.000216  -0.001436   0.000014
    24  C    0.024600  -0.001557   0.000107  -0.000004   0.000013   0.000000
    25  C   -0.001719   0.000268  -0.000004   0.000000   0.000000  -0.000000
    26  C    0.000102  -0.000003   0.000000   0.000000  -0.000000  -0.000000
    27  H    0.000000   0.000000   0.000000  -0.000000   0.000000  -0.000000
    28  H   -0.000000  -0.000000  -0.000000   0.000000  -0.000000   0.000000
    29  H   -0.000048   0.000000   0.000000   0.000000   0.000000   0.000000
    30  H   -0.020360   0.000777  -0.000046   0.000000  -0.000000   0.000000
    31  H    0.437709  -0.080942  -0.020980   0.000597   0.000014   0.000001
    32  H   -0.019539  -0.083058   0.418448  -0.054680   0.019122  -0.000280
    33  H    0.000001  -0.000013  -0.000367   0.016051  -0.087550   0.444267
    34  H    0.000000  -0.000001   0.000057  -0.001647   0.016800  -0.078904
    35  H    0.000000  -0.000000   0.000009  -0.000159  -0.000089   0.001166
    36  H    0.000000  -0.000000  -0.000000   0.000054  -0.000000   0.000010
    37  H   -0.000000  -0.000001  -0.000001  -0.000299   0.000008  -0.000001
    38  H   -0.000054   0.001735   0.010742  -0.040751  -0.001465  -0.000029
    39  H   -0.000423   0.019178  -0.002562   0.017355  -0.084871  -0.020560
    40  H   -0.002290   0.018512  -0.000368   0.000001   0.000706  -0.000044
    41  H   -0.000372  -0.000002   0.000001  -0.000000   0.000000   0.000000
    42  H    0.000001  -0.000000   0.000000   0.000000   0.000000  -0.000000
              13         14         15         16         17         18
     1  C   -0.000000   0.000000  -0.000000   0.000000   0.000000   0.000000
     2  C    0.000000   0.000000  -0.000000   0.000000  -0.000000  -0.000000
     3  C   -0.000000   0.000000   0.000000  -0.000000   0.000000  -0.000000
     4  C   -0.000000  -0.000000   0.000000  -0.000000   0.000000   0.000000
     5  C   -0.000000   0.000000  -0.000000   0.000000  -0.000000  -0.000000
     6  C    0.000000  -0.000000  -0.000000  -0.000000   0.000000   0.000001
     7  C   -0.000004   0.000010   0.000000  -0.000000  -0.000001  -0.000056
     8  C    0.000071   0.000445  -0.000003   0.000007  -0.000099   0.000284
     9  C   -0.003442   0.022134  -0.000248   0.000014   0.000325  -0.029276
    10  C   -0.133241   0.004423   0.026584  -0.004225   0.022267  -0.147797
    11  C    0.156217  -0.171190  -0.001066  -0.000007   0.000293   0.022024
    12  C    0.191837   0.156394   0.019293  -0.001460   0.000216  -0.003821
    13  C    5.523525   0.143826  -0.161603   0.022262  -0.002307   0.027444
    14  C    0.143826   5.487751   0.232091   0.149705  -0.170331   0.021045
    15  C   -0.161603   0.232091   5.460839   0.190562   0.149873  -0.173031
    16  C    0.022262   0.149705   0.190562   5.234327   0.172219   0.143161
    17  C   -0.002307  -0.170331   0.149873   0.172219   5.208404   0.239481
    18  C    0.027444   0.021045  -0.173031   0.143161   0.239481   5.439135
    19  C    0.025210   0.082801   0.045163  -0.155641   0.122527   0.263967
    20  C    0.019838  -0.000958   0.000054  -0.000001   0.000000  -0.000364
    21  C   -0.001507  -0.000067  -0.000001  -0.000000   0.000004   0.000047
    22  C    0.000018  -0.000005  -0.000000   0.000000  -0.000000   0.000001
    23  C   -0.000000   0.000000   0.000000  -0.000000  -0.000000  -0.000000
    24  C   -0.000000  -0.000000  -0.000000  -0.000000   0.000000   0.000000
    25  C    0.000000   0.000000  -0.000000   0.000000  -0.000000   0.000000
    26  C    0.000000  -0.000000   0.000000  -0.000000   0.000000   0.000000
    27  H    0.000000  -0.000000   0.000000   0.000000   0.000000   0.000000
    28  H   -0.000000   0.000000   0.000000   0.000000  -0.000000  -0.000000
    29  H    0.000000   0.000000  -0.000000   0.000000   0.000000   0.000000
    30  H    0.000000   0.000000  -0.000000   0.000000  -0.000000  -0.000000
    31  H   -0.000000   0.000000  -0.000000   0.000000  -0.000000   0.000006
    32  H   -0.000035  -0.001054   0.000033  -0.000049   0.001032   0.010918
    33  H   -0.080519   0.016852  -0.000570   0.000013  -0.000002   0.000055
    34  H    0.443033  -0.088200  -0.020241   0.001035  -0.000069  -0.000293
    35  H   -0.022415  -0.079936   0.440628  -0.083240   0.016204  -0.002245
    36  H   -0.000540   0.015745  -0.079146   0.436395  -0.084075   0.015158
    37  H    0.000030  -0.001642   0.015536  -0.085654   0.436073  -0.075346
    38  H   -0.000251   0.018918  -0.001910   0.015688  -0.081916   0.417646
    39  H    0.001148  -0.000078  -0.000001   0.000000  -0.000000   0.000011
    40  H    0.000001  -0.000000   0.000000  -0.000000   0.000000   0.000000
    41  H    0.000000   0.000000  -0.000000  -0.000000   0.000000   0.000000
    42  H    0.000000   0.000000  -0.000000   0.000000   0.000000  -0.000000
              19         20         21         22         23         24
     1  C   -0.000000  -0.000000  -0.000000   0.000016  -0.001340   0.019710
     2  C    0.000000   0.000000   0.000000  -0.000005   0.000308  -0.002267
     3  C   -0.000000   0.000000  -0.000003   0.000102  -0.001653   0.025651
     4  C   -0.000000  -0.000004   0.000257  -0.001685  -0.132989   0.027663
     5  C    0.000000   0.000111  -0.001327   0.024352   0.032526  -0.144826
     6  C    0.000001  -0.001498  -0.136064   0.032802  -0.051219   0.032361
     7  C   -0.000550   0.025005   0.032667  -0.149353   0.031947   0.024600
     8  C    0.023183   0.035081  -0.064382   0.033204  -0.134201  -0.001557
     9  C   -0.148047  -0.147925   0.024827   0.025191  -0.001698   0.000107
    10  C    0.201813   0.033052  -0.132505  -0.001254   0.000216  -0.000004
    11  C    0.003110   0.238521   0.152363   0.020119  -0.001436   0.000013
    12  C   -0.137302  -0.160567   0.022394  -0.001064   0.000014   0.000000
    13  C    0.025210   0.019838  -0.001507   0.000018  -0.000000  -0.000000
    14  C    0.082801  -0.000958  -0.000067  -0.000005   0.000000  -0.000000
    15  C    0.045163   0.000054  -0.000001  -0.000000   0.000000  -0.000000
    16  C   -0.155641  -0.000001  -0.000000   0.000000  -0.000000  -0.000000
    17  C    0.122527   0.000000   0.000004  -0.000000  -0.000000   0.000000
    18  C    0.263967  -0.000364   0.000047   0.000001  -0.000000   0.000000
    19  C    5.549490   0.025119  -0.003265   0.000121  -0.000003   0.000000
    20  C    0.025119   5.766073   0.176268  -0.166970   0.020777  -0.000945
    21  C   -0.003265   0.176268   5.454342   0.213951   0.146728   0.020194
    22  C    0.000121  -0.166970   0.213951   5.765776   0.209381  -0.163745
    23  C   -0.000003   0.020777   0.146728   0.209381   5.418643   0.206891
    24  C    0.000000  -0.000945   0.020194  -0.163745   0.206891   5.740762
    25  C    0.000000   0.000012  -0.001486   0.020475   0.143680   0.232675
    26  C   -0.000000  -0.000000   0.000011  -0.000909   0.019227  -0.159578
    27  H    0.000000  -0.000000  -0.000000  -0.000000   0.000009  -0.000493
    28  H   -0.000000   0.000000   0.000000   0.000000  -0.000001   0.000044
    29  H   -0.000000   0.000000  -0.000000   0.000001  -0.000010  -0.000329
    30  H    0.000000   0.000001   0.000001  -0.000375   0.018003  -0.002295
    31  H   -0.000045  -0.000398   0.018551  -0.002251   0.017855  -0.000371
    32  H   -0.037661  -0.002126   0.018716  -0.000455   0.000026   0.000001
    33  H   -0.001673  -0.021593   0.001284  -0.000066   0.000000   0.000000
    34  H    0.016001  -0.000600   0.000013  -0.000000  -0.000000  -0.000000
    35  H    0.016923  -0.000001   0.000000  -0.000000   0.000000   0.000000
    36  H   -0.001216   0.000000   0.000000  -0.000000   0.000000  -0.000000
    37  H    0.015757  -0.000000   0.000000   0.000000   0.000000   0.000000
    38  H   -0.047692   0.000027  -0.000026  -0.000000  -0.000000  -0.000000
    39  H   -0.000179   0.443355  -0.084367  -0.020424   0.000730  -0.000046
    40  H    0.000000  -0.020455  -0.083025   0.440445  -0.084157  -0.019688
    41  H    0.000000  -0.000045   0.000789  -0.020352  -0.082582   0.439696
    42  H    0.000000   0.000000   0.000000  -0.000048   0.000804  -0.021966
              25         26         27         28         29         30
     1  C    0.142824   0.229710   0.436399  -0.085057   0.015490  -0.000030
     2  C   -0.156314   0.146853  -0.085073   0.436383  -0.081040   0.000608
     3  C    0.045317  -0.175846   0.015132  -0.076649   0.437736  -0.018659
     4  C   -0.036378   0.045360  -0.001437   0.015780  -0.079270  -0.083041
     5  C    0.027578   0.025671   0.000044  -0.000493  -0.021960   0.439510
     6  C   -0.132859  -0.001667  -0.000001   0.000009   0.000805  -0.082618
     7  C   -0.001719   0.000102   0.000000  -0.000000  -0.000048  -0.020360
     8  C    0.000268  -0.000003   0.000000  -0.000000   0.000000   0.000777
     9  C   -0.000004   0.000000   0.000000  -0.000000   0.000000  -0.000046
    10  C    0.000000   0.000000  -0.000000   0.000000   0.000000   0.000000
    11  C    0.000000  -0.000000   0.000000  -0.000000   0.000000  -0.000000
    12  C   -0.000000  -0.000000  -0.000000   0.000000   0.000000   0.000000
    13  C    0.000000   0.000000   0.000000  -0.000000   0.000000   0.000000
    14  C    0.000000  -0.000000  -0.000000   0.000000   0.000000   0.000000
    15  C   -0.000000   0.000000   0.000000   0.000000  -0.000000  -0.000000
    16  C    0.000000  -0.000000   0.000000   0.000000   0.000000   0.000000
    17  C   -0.000000   0.000000   0.000000  -0.000000   0.000000  -0.000000
    18  C    0.000000   0.000000   0.000000  -0.000000   0.000000  -0.000000
    19  C    0.000000  -0.000000   0.000000  -0.000000  -0.000000   0.000000
    20  C    0.000012  -0.000000  -0.000000   0.000000   0.000000   0.000001
    21  C   -0.001486   0.000011  -0.000000   0.000000  -0.000000   0.000001
    22  C    0.020475  -0.000909  -0.000000   0.000000   0.000001  -0.000375
    23  C    0.143680   0.019227   0.000009  -0.000001  -0.000010   0.018003
    24  C    0.232675  -0.159578  -0.000493   0.000044  -0.000329  -0.002295
    25  C    5.429246   0.197047   0.015781  -0.001436   0.017504   0.017918
    26  C    0.197047   5.459574  -0.076651   0.015128  -0.002073  -0.000301
    27  H    0.015781  -0.076651   0.669072  -0.012412  -0.000316  -0.000001
    28  H   -0.001436   0.015128  -0.012412   0.669084  -0.012464  -0.000014
    29  H    0.017504  -0.002073  -0.000316  -0.012464   0.677263   0.007461
    30  H    0.017918  -0.000301  -0.000001  -0.000014   0.007461   0.685396
    31  H   -0.000001   0.000001   0.000000  -0.000000  -0.000000   0.007772
    32  H   -0.000000   0.000000  -0.000000  -0.000000  -0.000000  -0.000002
    33  H   -0.000000  -0.000000  -0.000000   0.000000  -0.000000  -0.000000
    34  H    0.000000  -0.000000  -0.000000   0.000000   0.000000  -0.000000
    35  H   -0.000000  -0.000000   0.000000   0.000000   0.000000   0.000000
    36  H    0.000000   0.000000   0.000000   0.000000  -0.000000   0.000000
    37  H   -0.000000   0.000000   0.000000   0.000000  -0.000000  -0.000000
    38  H    0.000000  -0.000000   0.000000  -0.000000   0.000000   0.000000
    39  H    0.000000   0.000000  -0.000000  -0.000000  -0.000000   0.000000
    40  H    0.000751  -0.000041  -0.000000   0.000000   0.000000   0.000012
    41  H   -0.083207  -0.018665  -0.000014  -0.000001   0.000012   0.000035
    42  H   -0.079259   0.437779  -0.012462  -0.000316   0.000036   0.000012
              31         32         33         34         35         36
     1  C   -0.000000   0.000000   0.000000   0.000000   0.000000   0.000000
     2  C    0.000000   0.000000   0.000000  -0.000000   0.000000   0.000000
     3  C   -0.000041   0.000000   0.000000   0.000000   0.000000   0.000000
     4  C    0.000741   0.000001   0.000000  -0.000000  -0.000000   0.000000
     5  C   -0.019622  -0.000045   0.000000   0.000000   0.000000  -0.000000
     6  C   -0.083668   0.000659  -0.000000   0.000000  -0.000000   0.000000
     7  C    0.437709  -0.019539   0.000001   0.000000   0.000000   0.000000
     8  C   -0.080942  -0.083058  -0.000013  -0.000001  -0.000000  -0.000000
     9  C   -0.020980   0.418448  -0.000367   0.000057   0.000009  -0.000000
    10  C    0.000597  -0.054680   0.016051  -0.001647  -0.000159   0.000054
    11  C    0.000014   0.019122  -0.087550   0.016800  -0.000089  -0.000000
    12  C    0.000001  -0.000280   0.444267  -0.078904   0.001166   0.000010
    13  C   -0.000000  -0.000035  -0.080519   0.443033  -0.022415  -0.000540
    14  C    0.000000  -0.001054   0.016852  -0.088200  -0.079936   0.015745
    15  C   -0.000000   0.000033  -0.000570  -0.020241   0.440628  -0.079146
    16  C    0.000000  -0.000049   0.000013   0.001035  -0.083240   0.436395
    17  C   -0.000000   0.001032  -0.000002  -0.000069   0.016204  -0.084075
[...]
 00006144,0.00001872,-0.00006900,-0.00017463,-0.00010459,0.00005716,0.0
 0001064,-0.00128393,-0.00037793,-0.00015285,0.00312976,-0.00417190,-0.
 00234244,0.00074800,0.00018316,-0.00031324,0.00225870,-0.00272926,0.00
 173719,0.00885100,0.00317838,0.00903433,-0.11605466,-0.07125912,-0.149
 61401,-0.02107321,-0.00994352,-0.01063682,-0.00002915,0.00005762,0.000
 16815,-0.00015432,0.00000992,0.00004268,-0.00000241,0.00002468,0.00007
 506,0.00003010,0.00001046,0.00002274,-0.00001222,-0.00000451,-0.000008
 08,0.00001292,0.00000750,0.00001096,-0.00000342,-0.00000351,-0.0000081
 1,-0.00000309,-0.00000038,0.00000091,-0.00000260,-0.00000106,-0.000000
 73,0.00000099,-0.00000207,-0.00000176,0.00000266,-0.00000186,0.0000006
 3,0.00002589,0.00000184,0.00002634,0.00147758,0.00003523,0.00112801,0.
 00006423,0.00000071,0.00000571,0.00007854,-0.00013812,-0.00037692,-0.0
 0013031,0.00040657,-0.00021685,0.00042399,0.00012843,0.00025820,-0.000
 52436,0.00223472,-0.00026340,0.12347040,0.08078564,0.15197648,0.000023
 68,0.00000672,0.00000717,-0.00000663,-0.00001441,-0.00002664,-0.000010
 75,0.00000295,0.00000714,0.00000095,-0.00001521,-0.00003178,-0.0000692
 5,0.00000323,0.00002870,0.00021757,0.00000680,-0.00007471,0.00050161,-
 0.00049827,-0.00101781,-0.00373164,-0.00149095,-0.00111102,-0.00067507
 ,-0.00012910,-0.00020072,-0.00465561,-0.00097524,0.00049349,-0.0012564
 4,0.01304865,0.02593874,0.00089424,0.00154933,0.00171286,0.00011734,-0
 .00018717,-0.00037828,0.00015995,0.00013444,0.00019108,0.00001652,-0.0
 0006867,-0.00012617,-0.00000575,0.00001543,0.00003023,-0.00000684,0.00
 004348,0.00008419,-0.00040731,-0.00008418,-0.00003590,0.00028294,0.000
 67928,0.00126921,-0.06411862,0.01729507,0.03832387,0.00692950,-0.01100
 856,-0.02138706,0.00125538,-0.00033662,-0.00148984,0.00014812,0.000240
 25,0.00038248,-0.00006656,-0.00003069,-0.00001063,0.00005088,0.0000194
 4,0.00002702,-0.00001639,0.00000125,0.00000149,0.00000055,0.00000005,0
 .00000126,0.00000121,0.00000081,0.00000150,0.00000002,0.00000031,0.000
 00091,0.00000890,0.00000920,0.00001972,-0.00025782,-0.00015528,-0.0001
 8449,0.00004038,0.00011526,-0.00001395,-0.00046063,-0.00050593,-0.0008
 2209,0.00000898,-0.00003340,0.00000808,-0.00002499,-0.00000247,0.00000
 297,-0.00000424,-0.00000328,-0.00000608,-0.00004408,0.00000928,0.00001
 361,0.00002077,-0.00000049,-0.00000216,0.06555171,0.00000051,-0.000012
 99,-0.00001814,-0.00002608,-0.00000624,0.00000042,0.00001017,0.0000087
 8,0.00002040,-0.00004128,-0.00001598,0.00000442,-0.00000048,0.00005703
 ,0.00002937,0.00003899,-0.00012517,0.00015593,0.00043003,-0.00008302,-
 0.00049234,-0.00240097,0.00341249,-0.00184110,-0.00011508,-0.00024571,
 0.00043300,-0.00009935,0.00562541,-0.00221381,-0.00037562,0.00309492,-
 0.00341474,-0.00063215,-0.00378941,0.00255552,0.00017369,0.00002933,0.
 00002381,-0.00002315,-0.00007772,0.00014083,0.00000753,0.00002673,-0.0
 0001635,0.00002219,0.00000740,0.00001051,-0.00001874,-0.00000012,-0.00
 000176,0.00004742,0.00015825,-0.00008333,-0.00020174,0.00008085,-0.000
 19913,0.01767996,-0.09650833,-0.11695654,0.00255024,-0.00097587,-0.010
 18327,0.00133153,-0.00205458,0.00138136,-0.00017531,-0.00010041,0.0002
 3174,0.00003341,0.00010705,-0.00011809,-0.00001997,-0.00000509,-0.0000
 1150,0.00001919,-0.00002056,-0.00000367,-0.00000469,0.00000471,-0.0000
 0199,-0.00000265,0.00000051,-0.00000056,0.00000061,-0.00000018,-0.0000
 0348,0.00000971,0.00001796,-0.00000635,-0.00014708,0.00015097,-0.00020
 898,0.00010488,-0.00087960,0.00038919,0.00023193,0.00026844,0.00008311
 ,0.00000415,0.00027684,-0.00015494,0.00000700,0.00001144,-0.00000340,0
 .00000270,-0.00000222,0.00000207,0.00001203,-0.00005029,0.00002239,-0.
 00000812,0.00001342,-0.00000086,-0.01791342,0.09134702,-0.00000457,-0.
 00001940,-0.00003921,-0.00004871,-0.00000196,0.00000258,0.00002079,0.0
 0002187,0.00003402,-0.00008108,-0.00000089,0.00000098,0.00002169,0.000
 02861,0.00009124,-0.00001385,0.00016249,0.00009826,0.00073760,-0.00030
 302,-0.00059247,-0.00283185,-0.00202669,0.00139014,-0.00017421,0.00043
 586,0.00039745,0.00214978,-0.00203518,0.00251992,0.00055366,-0.0061524
 9,-0.00680594,-0.00241227,0.00211063,-0.00058954,0.00030412,0.00009741
 ,0.00012018,-0.00010693,0.00010869,0.00007764,0.00001792,-0.00000081,0
 .00002938,0.00004302,0.00001189,0.00001315,-0.00003347,-0.00001445,-0.
 00001767,0.00021296,-0.00005649,0.00004695,-0.00039678,-0.00037880,-0.
 00042748,0.03905170,-0.11687804,-0.26554420,0.00425240,-0.00741809,-0.
 01076047,0.00166461,0.00172156,-0.00001272,-0.00040333,0.00014700,0.00
 015617,0.00011058,-0.00010502,-0.00005525,-0.00004749,-0.00001954,-0.0
 0002411,0.00003541,0.,-0.00002793,-0.00000770,-0.00000296,0.00000225,-
 0.00000503,-0.00000126,-0.00000027,0.00000148,-0.00000342,-0.00000518,
 0.00002069,-0.00000624,0.00000424,-0.00016897,-0.00020730,-0.00008020,
 -0.00003357,0.00038707,-0.00035793,0.00057319,0.00023358,0.00052429,0.
 00007910,-0.00014728,0.00006368,0.00002088,-0.00000147,0.00000545,0.00
 000523,0.00000329,0.00000156,0.00001880,0.00002295,-0.00002387,-0.0000
 1659,-0.00000242,0.00001356,-0.04226689,0.13025303,0.27932414,0.000046
 58,0.00002017,0.00002791,-0.00000912,-0.00003131,-0.00006139,-0.000068
 59,0.00001192,0.00004705,0.00022202,-0.00001175,-0.00011722,0.00047036
 ,-0.00048490,-0.00098621,-0.00357912,-0.00156070,-0.00109850,-0.000691
 05,-0.00011383,-0.00019074,-0.00479619,-0.00095850,0.00039335,0.000249
 51,0.00068999,0.00128350,0.00018289,0.00009717,0.00009877,0.00017394,-
 0.00018016,-0.00041116,-0.00001423,-0.00001838,0.00003013,0.00001775,0
 .00000880,0.00001221,-0.00005017,0.00002275,0.00005534,0.00001461,-0.0
 0001096,-0.00002377,-0.00002120,0.00001134,0.00002359,-0.00001915,-0.0
 0002205,-0.00003794,0.00000585,0.00001314,0.00002307,0.00001446,-0.000
 04428,-0.00007491,0.00130043,0.00127367,0.00131980,-0.00105067,0.01316
 405,0.02604631,-0.06528249,0.01864490,0.04120093,0.00723323,-0.0108746
 7,-0.02113913,0.00112939,-0.00034119,-0.00161888,0.00016448,0.00024235
 ,0.00039007,-0.00006041,-0.00003127,0.00000350,0.00000413,0.00000489,0
 .00000329,-0.00000106,0.00000279,0.00000533,0.00000801,0.00001015,0.00
 002170,-0.00025655,-0.00015254,-0.00017188,0.00004287,0.00012141,-0.00
 001762,-0.00038118,0.00001657,0.00016610,-0.00002779,-0.00001657,-0.00
 002500,0.00000144,0.00000197,-0.00000540,-0.00000606,-0.00000096,-0.00
 000035,-0.00000167,-0.00000120,-0.00000173,0.00000044,0.00000020,0.000
 00123,-0.00000169,-0.00001400,-0.00002622,-0.00038180,-0.00049664,-0.0
 0082040,0.06584435,0.00000560,-0.00002267,-0.00003725,-0.00005278,-0.0
 0002655,-0.00000194,-0.00000504,0.00006969,0.00003533,0.00003553,-0.00
 015606,0.00015878,0.00041757,-0.00008587,-0.00049462,-0.00244692,0.004
 09244,-0.00217337,-0.00011047,-0.00034189,0.00045552,-0.00006843,0.005
 02986,-0.00185839,-0.00019824,0.00002682,-0.00018353,0.00003704,-0.000
 12343,0.00020117,0.00020053,-0.00010962,0.00007638,-0.00004924,0.00021
 543,-0.00015742,0.00002481,-0.00001306,-0.00002234,0.00000930,0.000013
 82,0.00000496,0.00000535,-0.00000472,-0.00000940,0.00001431,-0.0000046
 9,0.00000841,-0.00000634,0.00000312,0.00000863,0.00000671,-0.00000515,
 -0.00000569,-0.00003014,0.00005136,-0.00000586,-0.00048928,-0.00297712
 ,0.00210572,-0.00037957,0.00298876,-0.00297777,0.01864495,-0.09583997,
 -0.11669782,0.00263385,-0.00080731,-0.01040730,0.00143339,-0.00261358,
 0.00165804,-0.00015151,-0.00008065,0.00019985,0.00000920,0.00017681,-0
 .00013406,-0.00000401,-0.00001957,0.00001127,-0.00000409,0.00000020,0.
 00000278,0.00000929,0.00001847,-0.00000536,-0.00015368,0.00018077,-0.0
 0022255,0.00011960,-0.00093749,0.00041385,0.00001637,0.00021181,-0.000
 13160,0.,0.00000560,0.00000431,0.00000990,-0.00003264,0.00001809,0.000
 00287,0.00000182,0.00000075,0.00000163,0.00000076,-0.00000064,0.000000
 36,0.00000264,-0.00000388,-0.00000111,0.00000137,0.00000361,0.00027131
 ,0.00024539,0.00002976,-0.01924524,0.09060761,0.00000037,-0.00004022,-
 0.00007971,-0.00010198,-0.00000631,-0.00001098,0.00001497,0.00003187,0
 .00010877,-0.00002783,0.00016842,0.00008030,0.00072035,-0.00031058,-0.
 00060354,-0.00277434,-0.00235411,0.00161989,-0.00018439,0.00045620,0.0
 0032942,0.00207645,-0.00167687,0.00242560,-0.00039614,-0.00036468,-0.0
 0046356,-0.00001493,0.00018891,0.00012647,0.00030872,0.00015402,0.0000
 5665,-0.00002821,-0.00016371,0.00000016,0.00004250,-0.00001907,-0.0000
 4865,0.00002990,0.00000222,0.00000829,0.00000707,-0.00000608,-0.000013
 26,0.00002921,0.00000902,0.00000042,-0.00000824,0.00001183,0.00002329,
 0.00001092,-0.00000700,-0.00001833,-0.00004818,-0.00000298,0.00006191,
 -0.00201392,0.00174618,-0.00032519,0.00043554,-0.00573986,-0.00633838,
 0.04120101,-0.11669782,-0.26521426,0.00440527,-0.00765238,-0.01095665,
 0.00173683,0.00201995,-0.00017949,-0.00035472,0.00011953,0.00012837,0.
 00008003,-0.00012581,-0.00000751,-0.00001354,0.00000945,-0.00000447,-0
 .00000768,0.00000138,0.00000335,0.00002007,-0.00000553,0.00000575,-0.0
 0017404,-0.00022278,-0.00007075,-0.00002104,0.00041348,-0.00038307,0.0
 0016571,-0.00013164,-0.00000309,0.00000633,0.00000769,0.00001658,0.000
 00959,0.00001971,-0.00000796,0.00000688,0.00000153,0.00000261,0.000003
 60,-0.00000007,0.00000006,0.00000154,-0.00000385,-0.00000294,-0.000001
 84,0.00000624,0.00001176,0.00063177,0.00018638,0.00042398,-0.04493230,
 0.12993563,0.27883959,0.00014638,0.00022954,0.00039332,0.00017988,-0.0
 0004798,-0.00017848,0.00046310,-0.00046592,-0.00095292,-0.00349725,-0.
 00166515,-0.00111896,-0.00068868,-0.00011059,-0.00018291,-0.00483010,-
 0.00090137,0.00032341,0.00025265,0.00070492,0.00130942,0.00018899,0.00
 007774,0.00005969,-0.00003819,-0.00004799,-0.00007318,-0.00004134,0.00
 001056,0.00002529,0.00003500,0.00000432,0.00000141,0.00000553,0.000004
 57,0.00000179,0.00000893,0.00000650,0.00000971,-0.00002011,0.00000746,
 0.00001795,0.00000791,-0.00000156,-0.00000470,-0.00001050,0.00000382,0
 .00000908,-0.00000598,-0.00000585,-0.00001015,-0.00000067,-0.00000047,
 -0.00000109,0.00001305,-0.00000239,-0.00000763,-0.00004085,-0.00000533
 ,0.00004097,0.00018379,-0.00019165,-0.00043841,0.00129749,0.00120680,0
 .00134144,-0.00126787,0.01309859,0.02588714,-0.06546467,0.01897695,0.0
 4181768,0.00735442,-0.01088325,-0.02109202,0.00104104,-0.00033388,-0.0
 0176112,0.00002233,-0.00001560,0.00002923,-0.00002388,0.00001651,0.000
 04682,-0.00026406,-0.00014803,-0.00017153,0.00003712,0.00011698,-0.000
 02265,-0.00039087,0.00001402,0.00017095,0.00002134,-0.00000781,-0.0000
 1524,-0.00000317,-0.00000296,-0.00000419,-0.00000117,-0.00000156,-0.00
 000118,-0.00000228,-0.00000058,-0.00000046,-0.00000018,-0.00000013,-0.
 00000006,-0.00000017,0.00000022,0.00000073,0.00000112,-0.00000053,-0.0
 0000086,-0.00002768,-0.00001358,-0.00001988,-0.00039790,-0.00050129,-0
 .00082474,0.06612793,-0.00010873,-0.00001756,0.00008984,0.00001129,-0.
 00016521,0.00015879,0.00042020,-0.00009493,-0.00047449,-0.00255639,0.0
 0480956,-0.00259153,-0.00011309,-0.00032948,0.00045930,-0.00001653,0.0
 0431442,-0.00150752,-0.00020519,0.00001910,-0.00018111,0.00003741,-0.0
 0013405,0.00019112,-0.00003458,0.00004783,0.00000686,0.00003253,0.0000
 0439,0.00003046,0.00003213,-0.00000768,-0.00002458,-0.00000797,-0.0000
 2981,-0.00000165,0.00001081,-0.00000625,-0.00000687,0.00000436,0.00000
 323,0.00000762,0.00000212,-0.00000456,-0.00000789,0.00000775,0.0000010
 9,0.00000318,-0.00000361,0.00000002,0.00000356,0.00000920,-0.00000245,
 -0.00000344,-0.00001728,0.00000012,0.00000785,-0.00005904,0.00013451,-
 0.00012967,0.00021411,-0.00009857,0.00012718,-0.00053566,-0.00242364,0
 .00179422,-0.00043048,0.00272647,-0.00272461,0.01889885,-0.09583976,-0
 .11630140,0.00262511,-0.00056057,-0.01075535,0.00153153,-0.00326657,0.
 00201745,-0.00005089,0.00023306,-0.00013566,-0.00002634,0.00005019,0.0
 0000080,-0.00015420,0.00014487,-0.00020031,0.00011919,-0.00092908,0.00
 040984,0.00001229,0.00024085,-0.00014710,-0.00000765,0.00001137,-0.000
 01285,-0.00000060,0.00000434,0.00000138,0.00000266,0.00000629,-0.00000
 277,0.00000166,0.00000146,0.00000082,0.00000156,0.00000048,-0.00000083
 ,0.00000047,0.00000025,-0.00000225,-0.00000166,0.00000182,0.00000036,0
 .00000107,0.00000382,0.00000554,0.00025113,0.00025215,0.00003565,-0.01
 939049,0.09066337,-0.00024634,0.00002085,0.00003632,-0.00006640,0.0001
 7087,0.00008626,0.00072272,-0.00029378,-0.00059224,-0.00280429,-0.0027
 7329,0.00178339,-0.00018765,0.00045879,0.00034566,0.00199662,-0.001327
 07,0.00219676,-0.00041159,-0.00036672,-0.00047251,-0.00001657,0.000182
 90,0.00011009,-0.00004782,0.00000959,0.00007582,0.00006684,0.00003494,
 0.00003722,0.00005399,-0.00001891,-0.00004491,-0.00002192,-0.00000421,
 -0.00003157,0.00001785,-0.00000600,-0.00001876,0.00001209,0.00000699,0
 .00000948,0.00000228,-0.00000714,-0.00001458,0.00001651,0.00000399,0.0
 0000274,-0.00000591,0.00000401,0.00000732,0.00001719,-0.00000147,-0.00
 000790,-0.00003578,0.00000482,0.00001424,-0.00006060,-0.00014062,-0.00
 004410,0.00032887,0.00020993,0.00014099,-0.00195354,0.00143887,-0.0001
 9542,0.00030388,-0.00548372,-0.00621787,0.04166999,-0.11631733,-0.2648
 2722,0.00445206,-0.00800046,-0.01119267,0.00176635,0.00239788,-0.00032
 449,-0.00003750,-0.00014286,0.00004779,-0.00003420,-0.00000793,0.00004
 458,-0.00018321,-0.00020157,-0.00007638,-0.00001849,0.00041029,-0.0003
 7905,0.00016766,-0.00014746,0.00000429,-0.00001494,-0.00001282,-0.0000
 0220,0.00000027,0.00000186,0.00000714,0.00000679,-0.00000191,0.0000024
 6,0.00000378,0.00000128,0.00000250,0.00000314,-0.00000049,-0.00000081,
 0.00000120,-0.00000220,-0.00000302,-0.00000299,0.00000013,0.00000266,0
 .00000782,0.00000853,0.00001531,0.00059809,0.00018910,0.00044183,-0.04
 522054,0.12966023,0.27859467,0.00805301,-0.01158201,-0.02248895,-0.003
 25669,-0.00198695,-0.00133229,-0.00068761,-0.00014199,-0.00024178,-0.0
 0495708,-0.00081504,0.00031879,0.00027227,0.00072705,0.00134701,0.0001
 9865,0.00006131,0.00003402,-0.00003263,-0.00003580,-0.00005447,-0.0000
 3109,0.00000231,0.00000819,0.00000090,-0.00000515,-0.00001030,-0.00001
 902,0.00000204,0.00000734,0.00001320,0.00000396,0.00000434,0.00000083,
 -0.00000066,-0.00000089,0.00000355,0.00000335,0.00000535,-0.00000684,0
 .00000251,0.00000624,0.00000266,-0.00000048,-0.00000155,-0.00000419,0.
 00000121,0.00000304,-0.00000158,-0.00000194,-0.00000348,-0.00000117,-0
 .00000054,-0.00000095,0.00000603,0.00000038,-0.00000049,-0.00000219,0.
 00000534,0.00000764,0.00003181,-0.00000377,-0.00001315,-0.00004062,0.0
 0000577,0.00004440,0.00016434,-0.00019133,-0.00043263,0.00140638,0.001
 09944,0.00128951,-0.00136133,0.01304344,0.02569040,-0.06568717,0.01947
 365,0.04259151,0.00109921,0.00079318,0.00011971,0.00021809,-0.00053390
 ,-0.00101631,0.00009598,0.00012291,-0.00003167,-0.00039835,0.00001886,
 0.00017151,0.00002192,-0.00000723,-0.00001400,0.00000015,0.00000039,0.
 00000102,-0.00000014,-0.00000044,-0.00000050,-0.00000045,-0.00000029,-
 0.00000043,-0.00000063,-0.00000012,0.,0.00000023,-0.00000006,-0.000000
 08,-0.00000018,0.00000002,0.00000018,0.00000006,0.00000007,0.00000032,
 -0.00000311,-0.00000181,-0.00000204,-0.00002868,-0.00001206,-0.0000165
 6,-0.00037045,-0.00050705,-0.00084573,0.06530192,0.00316188,-0.0001196
 8,-0.01065133,-0.00281275,0.00641141,-0.00362942,-0.00005083,-0.000292
 61,0.00050959,0.00002339,0.00354794,-0.00116846,-0.00020445,0.00003054
 ,-0.00015743,0.00002493,-0.00011440,0.00016252,-0.00003736,0.00003693,
 0.00001648,0.00003239,0.00000144,0.00001955,-0.00001458,0.00000266,0.0
 0001159,0.00001317,0.00000672,0.00001370,0.00001254,-0.00000607,-0.000
 00971,-0.00000459,-0.00000436,-0.00001220,0.00000675,-0.00000048,0.000
 00004,0.00000295,0.00000352,0.00000503,0.00000046,-0.00000372,-0.00000
 617,0.00000482,0.00000077,0.00000138,-0.00000180,0.,0.00000166,0.00000
 728,-0.00000123,-0.00000230,-0.00001162,0.00000140,0.00000492,-0.00001
 365,-0.00002212,-0.00001203,0.00003699,0.00000474,-0.00000289,-0.00005
 334,0.00006393,-0.00010201,0.00021570,-0.00008242,0.00014617,-0.000535
 19,-0.00176020,0.00144170,-0.00056365,0.00231746,-0.00243687,0.0192327
 3,-0.09706964,-0.11674064,0.00050825,-0.00415070,0.00276616,0.00015121
 ,-0.00006049,-0.00049537,0.00013067,-0.00094799,0.00044790,0.00001250,
 0.00020378,-0.00012353,-0.00000803,0.00001242,-0.00001329,-0.00000022,
 -0.00000016,-0.00000315,-0.00000054,0.00000245,0.00000189,0.00000266,0
 .00000044,0.00000012,0.00000128,0.00000115,0.00000096,0.00000164,0.000
 00019,-0.00000078,0.00000048,-0.00000034,-0.00000179,-0.00000138,0.000
 00120,0.00000073,-0.00000025,0.00000475,0.00000201,0.00000172,0.000005
 33,0.00000603,0.00026642,0.00023510,0.00004210,-0.01953856,0.09174034,
 0.00539151,-0.00764446,-0.01038309,-0.00289386,-0.00379783,0.00204263,
 -0.00006941,0.00052819,0.00045633,0.00190424,-0.00099747,0.00188878,-0
 .00041443,-0.00034740,-0.00043656,-0.00003478,0.00015510,0.00009735,-0
 .00005742,0.00001616,0.00007451,0.00006507,0.00002569,0.00002291,-0.00
 002813,0.00000967,0.00002212,0.00002838,0.00001597,0.00002247,0.000020
 55,-0.00000796,-0.00002154,-0.00000832,-0.00001300,-0.00002030,0.00001
 179,0.00000073,-0.00000225,0.00000708,0.00000512,0.00000877,0.00000022
 ,-0.00000598,-0.00001186,0.00000987,0.00000212,0.00000151,-0.00000323,
 0.00000169,0.00000317,0.00001384,-0.00000070,-0.00000495,-0.00002319,0
 .00000248,0.00000946,-0.00002827,-0.00001590,-0.00003858,0.00006392,0.
 00000542,-0.00000051,-0.00006736,-0.00011407,-0.00007833,0.00033704,0.
 00022918,0.00018165,-0.00180154,0.00110834,-0.00000164,-0.00004039,-0.
 00521190,-0.00618046,0.04213594,-0.11678978,-0.26684924,-0.00041908,0.
 00270805,-0.00046198,0.00027921,-0.00035565,-0.00054430,-0.00001700,0.
 00044948,-0.00034551,0.00015949,-0.00012483,-0.00000081,-0.00001551,-0
 .00001345,-0.00000196,-0.00000014,-0.00000327,-0.00000463,-0.00000069,
 0.00000187,0.00000517,0.00000513,0.00000072,0.00000041,0.00000266,0.00
 000124,0.00000232,0.00000314,-0.00000044,-0.00000103,0.00000106,-0.000
 00170,-0.00000287,-0.00000243,0.00000043,0.00000228,0.00000091,0.00000
 233,0.00000793,0.00000949,0.00000884,0.00001674,0.00061690,0.00019984,
 0.00043618,-0.04514228,0.12996713,0.28008970\\0.00005736,0.00002663,0.
 00003865,0.00007088,-0.00000549,-0.00002484,-0.00002789,-0.00002471,-0
 .00004105,-0.00004903,0.00010599,0.00021042,0.00000484,-0.00007765,-0.
 00014782,-0.00002717,0.00014344,0.00027677,0.00000687,-0.00008934,-0.0
 0017034,0.00002895,0.00014025,0.00025931,0.00005082,-0.00000529,-0.000
 02038,-0.00002827,0.00000642,0.00001791,0.00009479,-0.00006972,-0.0001
 5117,-0.00008046,0.00000478,0.00002545,0.00006360,0.00000385,-0.000005
 69,-0.00007140,-0.00000651,0.00000225,0.00004577,0.00002338,0.00003487
 ,-0.00002224,0.00000330,0.00001078,-0.00004087,0.00001576,0.00003813,0
 .00001449,-0.00000091,-0.00000467,-0.00007555,-0.00000942,-0.00000241,
 -0.00003161,0.00006478,0.00012895,0.00009051,-0.00012396,-0.00025287,-
 0.00005194,0.00008059,0.00016299,0.00006224,-0.00013650,-0.00027082,-0
 .00004427,0.00007033,0.00014203,0.00002435,-0.00010968,-0.00021236,-0.
 00003828,0.00001309,0.00003256,-0.00002545,-0.00000953,-0.00001283,-0.
 00002930,0.00000029,0.00000652,-0.00001241,0.00000289,0.00000799,-0.00
 000080,0.00001441,0.00002741,-0.00000736,0.00001250,0.00002514,0.00002
 847,0.00000478,0.00000324,0.00001937,0.00000026,-0.00000346,-0.0000147
 5,0.00000413,0.00001082,0.00001206,-0.00001221,-0.00002555,0.00002342,
 0.00000102,-0.00000285,-0.00000522,-0.00000923,-0.00001639,-0.00001935
 ,-0.00000509,-0.00000568,0.00000030,-0.00001515,-0.00002872,0.00000294
 ,-0.00001314,-0.00002544,0.00001024,-0.00001300,-0.00002667,-0.0000086
 5,-0.00000632,-0.00001019\\\@
 The archive entry for this job was punched.


 "MATHEMATICS IS THE ART OF GIVING THE SAME NAME
 TO DIFFERENT THINGS."
                    - H. POINCARE
 Job cpu time:       0 days  1 hours 18 minutes 41.3 seconds.
 Elapsed time:       0 days  0 hours  9 minutes 50.2 seconds.
 File lengths (MBytes):  RWF=    772 Int=      0 D2E=      0 Chk=     15 Scr=      1
 Normal termination of Gaussian 16 at Tue Oct  8 23:26:15 2024.
