 Entering Gaussian System, Link 0=g16
 Initial command:
 /opt/g16/l1.exe "/tmp/Gau-1340310.inp" -scrdir="/tmp/"
 Entering Link 1 = /opt/g16/l1.exe PID=   1340312.
  
 Copyright (c) 1988-2019, Gaussian, Inc.  All Rights Reserved.
  
 This is part of the Gaussian(R) 16 program.  It is based on
 the Gaussian(R) 09 system (copyright 2009, Gaussian, Inc.),
 the Gaussian(R) 03 system (copyright 2003, Gaussian, Inc.),
 the Gaussian(R) 98 system (copyright 1998, Gaussian, Inc.),
 the Gaussian(R) 94 system (copyright 1995, Gaussian, Inc.),
 the Gaussian 92(TM) system (copyright 1992, Gaussian, Inc.),
 the Gaussian 90(TM) system (copyright 1990, Gaussian, Inc.),
 the Gaussian 88(TM) system (copyright 1988, Gaussian, Inc.),
 the Gaussian 86(TM) system (copyright 1986, Carnegie Mellon
 University), and the Gaussian 82(TM) system (copyright 1983,
 Carnegie Mellon University). Gaussian is a federally registered
 trademark of Gaussian, Inc.
  
 This software contains proprietary and confidential information,
 including trade secrets, belonging to Gaussian, Inc.
  
 This software is provided under written license and may be
 used, copied, transmitted, or stored only in accord with that
 written license.
  
 The following legend is applicable only to US Government
 contracts under FAR:
  
                    RESTRICTED RIGHTS LEGEND
  
 Use, reproduction and disclosure by the US Government is
 subject to restrictions as set forth in subparagraphs (a)
 and (c) of the Commercial Computer Software - Restricted
 Rights clause in FAR 52.227-19.
  
 Gaussian, Inc.
 340 Quinnipiac St., Bldg. 40, Wallingford CT 06492
  
  
 ---------------------------------------------------------------
 Warning -- This program may not be used in any manner that
 competes with the business of Gaussian, Inc. or will provide
 assistance to any competitor of Gaussian, Inc.  The licensee
 of this program is prohibited from giving any competitor of
 Gaussian, Inc. access to this program.  By using this program,
 the user acknowledges that Gaussian, Inc. is engaged in the
 business of creating and licensing software in the field of
 computational chemistry and represents and warrants to the
 licensee that it is not a competitor of Gaussian, Inc. and that
 it will not use this program in any manner prohibited above.
 ---------------------------------------------------------------
  

 Cite this work as:
 Gaussian 16, Revision C.01,
 M. J. Frisch, G. W. Trucks, H. B. Schlegel, G. E. Scuseria, 
 M. A. Robb, J. R. Cheeseman, G. Scalmani, V. Barone, 
 G. A. Petersson, H. Nakatsuji, X. Li, M. Caricato, A. V. Marenich, 
 J. Bloino, B. G. Janesko, R. Gomperts, B. Mennucci, H. P. Hratchian, 
 J. V. Ortiz, A. F. Izmaylov, J. L. Sonnenberg, D. Williams-Young, 
 F. Ding, F. Lipparini, F. Egidi, J. Goings, B. Peng, A. Petrone, 
 T. Henderson, D. Ranasinghe, V. G. Zakrzewski, J. Gao, N. Rega, 
 G. Zheng, W. Liang, M. Hada, M. Ehara, K. Toyota, R. Fukuda, 
 J. Hasegawa, M. Ishida, T. Nakajima, Y. Honda, O. Kitao, H. Nakai, 
 T. Vreven, K. Throssell, J. A. Montgomery, Jr., J. E. Peralta, 
 F. Ogliaro, M. J. Bearpark, J. J. Heyd, E. N. Brothers, K. N. Kudin, 
 V. N. Staroverov, T. A. Keith, R. Kobayashi, J. Normand, 
 K. Raghavachari, A. P. Rendell, J. C. Burant, S. S. Iyengar, 
 J. Tomasi, M. Cossi, J. M. Millam, M. Klene, C. Adamo, R. Cammi, 
 J. W. Ochterski, R. L. Martin, K. Morokuma, O. Farkas, 
 J. B. Foresman, and D. J. Fox, Gaussian, Inc., Wallingford CT, 2019.
 
 ******************************************
 Gaussian 16:  ES64L-G16RevC.01  3-Jul-2019
                 8-Oct-2024 
 ******************************************
 %nprocshared=8
 Will use up to    8 processors via shared memory.
 %mem=10400MB
 ----------------------------------------------------------------------
 #N opt freq B3LYP/def2SVPP symm=veryloose em=gd3bj scale=0.961 press=0
 .987
 ----------------------------------------------------------------------
 1/18=20,19=15,26=3,38=1,113=-987000,114=961000/1,3;
 2/9=110,12=2,17=2,18=2,40=1/2;
 3/5=43,7=202,11=2,25=1,30=1,71=1,74=-5,124=41/1,2,3;
 4//1;
 5/5=2,38=5/2;
 6/7=2,8=2,9=2,10=2,28=1/1;
 7//1,2,3,16;
 1/18=20,19=15,26=3/3(2);
 2/9=110/2;
 99//99;
 2/9=110/2;
 3/5=43,7=202,11=2,25=1,30=1,71=1,74=-5,124=41/1,2,3;
 4/5=5,16=3,69=1/1;
 5/5=2,38=5/2;
 7//1,2,3,16;
 1/18=20,19=15,26=3/3(-5);
 2/9=110/2;
 6/7=2,8=2,9=2,10=2,19=2,28=1/1;
 99/9=1/99;
 ----------------------------------------
 c1ccc2cc3cc4cc5cc6ccccc6cc5cc4cc3cc2c1_2
 ----------------------------------------
 Symbolic Z-matrix:
 Charge =  0 Multiplicity = 1
 C                     7.2809    0.1963   -1.1097 
 C                     7.3365   -0.7822   -0.1221 
 C                     6.1598   -1.2381    0.474 
 C                     4.9117   -0.7206    0.0893 
 C                     3.7184   -1.1689    0.6794 
 C                     2.4703   -0.6508    0.2941 
 C                     1.2766   -1.0992    0.8844 
 C                     0.0281   -0.5817    0.4997 
 C                    -1.1654   -1.0303    1.0902 
 C                    -2.414    -0.513     0.7057 
 C                    -3.6072   -0.9623    1.2967 
 C                    -4.8553   -0.4451    0.9123 
 C                    -6.0485   -0.8937    1.5027 
 C                    -7.2809   -0.3698    1.1096 
 C                    -7.3365    0.6087    0.122 
 C                    -6.1598    1.0647   -0.4741 
 C                    -4.9117    0.5472   -0.0893 
 C                    -3.7184    0.9956   -0.6794 
 C                    -2.4703    0.4775   -0.2941 
 C                    -1.2766    0.9259   -0.8843 
 C                    -0.0281    0.4084   -0.4997 
 C                     1.1655    0.857    -1.0901 
 C                     2.414     0.3397   -0.7056 
 C                     3.6072    0.7889   -1.2967 
 C                     4.8553    0.2717   -0.9123 
 C                     6.0485    0.7203   -1.5027 
 H                     8.196     0.5529   -1.5752 
 H                     8.2951   -1.1916    0.1856 
 H                     6.2238   -2.0035    1.2442 
 H                     3.7624   -1.9344    1.452 
 H                     1.3202   -1.8647    1.6571 
 H                    -1.1219   -1.7959    1.8629 
 H                    -3.5641   -1.7277    2.0694 
 H                    -6.0256   -1.658     2.2763 
 H                    -8.196    -0.7264    1.5751 
 H                    -8.2951    1.0181   -0.1857 
 H                    -6.2238    1.8301   -1.2443 
 H                    -3.7624    1.7611   -1.452 
 H                    -1.3202    1.6914   -1.657 
 H                     1.122     1.6225   -1.8628 
 H                     3.5641    1.5544   -2.0693 
 H                     6.0256    1.4845   -2.2764 
 

 GradGradGradGradGradGradGradGradGradGradGradGradGradGradGradGradGradGrad
 Berny optimization.
 Initialization pass.
                           ----------------------------
                           !    Initial Parameters    !
                           ! (Angstroms and Degrees)  !
 --------------------------                            --------------------------
 ! Name  Definition              Value          Derivative Info.                !
 --------------------------------------------------------------------------------
 ! R1    R(1,2)                  1.3914         estimate D2E/DX2                !
 ! R2    R(1,26)                 1.3956         estimate D2E/DX2                !
 ! R3    R(1,27)                 1.0869         estimate D2E/DX2                !
 ! R4    R(2,3)                  1.3956         estimate D2E/DX2                !
 ! R5    R(2,28)                 1.0868         estimate D2E/DX2                !
 ! R6    R(3,4)                  1.4048         estimate D2E/DX2                !
 ! R7    R(3,29)                 1.0877         estimate D2E/DX2                !
 ! R8    R(4,5)                  1.4047         estimate D2E/DX2                !
 ! R9    R(4,25)                 1.411          estimate D2E/DX2                !
 ! R10   R(5,6)                  1.4052         estimate D2E/DX2                !
 ! R11   R(5,30)                 1.0885         estimate D2E/DX2                !
 ! R12   R(6,7)                  1.4051         estimate D2E/DX2                !
 ! R13   R(6,23)                 1.4084         estimate D2E/DX2                !
 ! R14   R(7,8)                  1.4052         estimate D2E/DX2                !
 ! R15   R(7,31)                 1.0886         estimate D2E/DX2                !
 ! R16   R(8,9)                  1.4051         estimate D2E/DX2                !
 ! R17   R(8,21)                 1.4079         estimate D2E/DX2                !
 ! R18   R(9,10)                 1.4051         estimate D2E/DX2                !
 ! R19   R(9,32)                 1.0886         estimate D2E/DX2                !
 ! R20   R(10,11)                1.4053         estimate D2E/DX2                !
 ! R21   R(10,19)                1.4085         estimate D2E/DX2                !
 ! R22   R(11,12)                1.4046         estimate D2E/DX2                !
 ! R23   R(11,33)                1.0885         estimate D2E/DX2                !
 ! R24   R(12,13)                1.4048         estimate D2E/DX2                !
 ! R25   R(12,17)                1.411          estimate D2E/DX2                !
 ! R26   R(13,14)                1.3956         estimate D2E/DX2                !
 ! R27   R(13,34)                1.0877         estimate D2E/DX2                !
 ! R28   R(14,15)                1.3914         estimate D2E/DX2                !
 ! R29   R(14,35)                1.0869         estimate D2E/DX2                !
 ! R30   R(15,16)                1.3957         estimate D2E/DX2                !
 ! R31   R(15,36)                1.0868         estimate D2E/DX2                !
 ! R32   R(16,17)                1.4049         estimate D2E/DX2                !
 ! R33   R(16,37)                1.0877         estimate D2E/DX2                !
 ! R34   R(17,18)                1.4047         estimate D2E/DX2                !
 ! R35   R(18,19)                1.4052         estimate D2E/DX2                !
 ! R36   R(18,38)                1.0885         estimate D2E/DX2                !
 ! R37   R(19,20)                1.4051         estimate D2E/DX2                !
 ! R38   R(20,21)                1.4052         estimate D2E/DX2                !
 ! R39   R(20,39)                1.0886         estimate D2E/DX2                !
 ! R40   R(21,22)                1.4052         estimate D2E/DX2                !
 ! R41   R(22,23)                1.4051         estimate D2E/DX2                !
 ! R42   R(22,40)                1.0886         estimate D2E/DX2                !
 ! R43   R(23,24)                1.4053         estimate D2E/DX2                !
 ! R44   R(24,25)                1.4046         estimate D2E/DX2                !
 ! R45   R(24,41)                1.0885         estimate D2E/DX2                !
 ! R46   R(25,26)                1.4048         estimate D2E/DX2                !
 ! R47   R(26,42)                1.0877         estimate D2E/DX2                !
 ! A1    A(2,1,26)             119.9472         estimate D2E/DX2                !
 ! A2    A(2,1,27)             120.0731         estimate D2E/DX2                !
 ! A3    A(26,1,27)            119.9796         estimate D2E/DX2                !
 ! A4    A(1,2,3)              119.9475         estimate D2E/DX2                !
 ! A5    A(1,2,28)             120.0739         estimate D2E/DX2                !
 ! A6    A(3,2,28)             119.9786         estimate D2E/DX2                !
 ! A7    A(2,3,4)              120.7817         estimate D2E/DX2                !
 ! A8    A(2,3,29)             118.8611         estimate D2E/DX2                !
 ! A9    A(4,3,29)             120.3572         estimate D2E/DX2                !
 ! A10   A(3,4,5)              121.4753         estimate D2E/DX2                !
 ! A11   A(3,4,25)             119.2712         estimate D2E/DX2                !
 ! A12   A(5,4,25)             119.2535         estimate D2E/DX2                !
 ! A13   A(4,5,6)              121.4445         estimate D2E/DX2                !
 ! A14   A(4,5,30)             119.2274         estimate D2E/DX2                !
 ! A15   A(6,5,30)             119.3281         estimate D2E/DX2                !
 ! A16   A(5,6,7)              121.4458         estimate D2E/DX2                !
 ! A17   A(5,6,23)             119.3024         estimate D2E/DX2                !
 ! A18   A(7,6,23)             119.2518         estimate D2E/DX2                !
 ! A19   A(6,7,8)              121.484          estimate D2E/DX2                !
 ! A20   A(6,7,31)             119.2476         estimate D2E/DX2                !
 ! A21   A(8,7,31)             119.2685         estimate D2E/DX2                !
 ! A22   A(7,8,9)              121.4699         estimate D2E/DX2                !
 ! A23   A(7,8,21)             119.2607         estimate D2E/DX2                !
 ! A24   A(9,8,21)             119.2694         estimate D2E/DX2                !
 ! A25   A(8,9,10)             121.482          estimate D2E/DX2                !
 ! A26   A(8,9,32)             119.2668         estimate D2E/DX2                !
 ! A27   A(10,9,32)            119.2513         estimate D2E/DX2                !
 ! A28   A(9,10,11)            121.4459         estimate D2E/DX2                !
 ! A29   A(9,10,19)            119.2517         estimate D2E/DX2                !
 ! A30   A(11,10,19)           119.3023         estimate D2E/DX2                !
 ! A31   A(10,11,12)           121.4418         estimate D2E/DX2                !
 ! A32   A(10,11,33)           119.3241         estimate D2E/DX2                !
 ! A33   A(12,11,33)           119.2341         estimate D2E/DX2                !
 ! A34   A(11,12,13)           121.4739         estimate D2E/DX2                !
 ! A35   A(11,12,17)           119.2558         estimate D2E/DX2                !
 ! A36   A(13,12,17)           119.2703         estimate D2E/DX2                !
 ! A37   A(12,13,14)           120.7818         estimate D2E/DX2                !
 ! A38   A(12,13,34)           120.3576         estimate D2E/DX2                !
 ! A39   A(14,13,34)           118.8606         estimate D2E/DX2                !
 ! A40   A(13,14,15)           119.9475         estimate D2E/DX2                !
 ! A41   A(13,14,35)           119.9794         estimate D2E/DX2                !
 ! A42   A(15,14,35)           120.0731         estimate D2E/DX2                !
 ! A43   A(14,15,16)           119.9501         estimate D2E/DX2                !
 ! A44   A(14,15,36)           120.0739         estimate D2E/DX2                !
 ! A45   A(16,15,36)           119.976          estimate D2E/DX2                !
 ! A46   A(15,16,17)           120.7764         estimate D2E/DX2                !
 ! A47   A(15,16,37)           118.8637         estimate D2E/DX2                !
 ! A48   A(17,16,37)           120.3599         estimate D2E/DX2                !
 ! A49   A(12,17,16)           119.2739         estimate D2E/DX2                !
 ! A50   A(12,17,18)           119.256          estimate D2E/DX2                !
 ! A51   A(16,17,18)           121.4701         estimate D2E/DX2                !
 ! A52   A(17,18,19)           121.442          estimate D2E/DX2                !
 ! A53   A(17,18,38)           119.2299         estimate D2E/DX2                !
 ! A54   A(19,18,38)           119.3281         estimate D2E/DX2                !
 ! A55   A(10,19,18)           119.3021         estimate D2E/DX2                !
 ! A56   A(10,19,20)           119.2498         estimate D2E/DX2                !
 ! A57   A(18,19,20)           121.4481         estimate D2E/DX2                !
 ! A58   A(19,20,21)           121.489          estimate D2E/DX2                !
 ! A59   A(19,20,39)           119.2452         estimate D2E/DX2                !
 ! A60   A(21,20,39)           119.2658         estimate D2E/DX2                !
 ! A61   A(8,21,20)            119.258          estimate D2E/DX2                !
 ! A62   A(8,21,22)            119.2649         estimate D2E/DX2                !
 ! A63   A(20,21,22)           121.477          estimate D2E/DX2                !
 ! A64   A(21,22,23)           121.4846         estimate D2E/DX2                !
 ! A65   A(21,22,40)           119.2624         estimate D2E/DX2                !
 ! A66   A(23,22,40)           119.253          estimate D2E/DX2                !
 ! A67   A(6,23,22)            119.2539         estimate D2E/DX2                !
 ! A68   A(6,23,24)            119.3018         estimate D2E/DX2                !
 ! A69   A(22,23,24)           121.4443         estimate D2E/DX2                !
 ! A70   A(23,24,25)           121.442          estimate D2E/DX2                !
 ! A71   A(23,24,41)           119.3233         estimate D2E/DX2                !
 ! A72   A(25,24,41)           119.2347         estimate D2E/DX2                !
 ! A73   A(4,25,24)            119.2558         estimate D2E/DX2                !
 ! A74   A(4,25,26)            119.2703         estimate D2E/DX2                !
 ! A75   A(24,25,26)           121.4739         estimate D2E/DX2                !
 ! A76   A(1,26,25)            120.782          estimate D2E/DX2                !
 ! A77   A(1,26,42)            118.8598         estimate D2E/DX2                !
 ! A78   A(25,26,42)           120.3582         estimate D2E/DX2                !
 ! D1    D(26,1,2,3)            -0.003          estimate D2E/DX2                !
 ! D2    D(26,1,2,28)         -179.9929         estimate D2E/DX2                !
 ! D3    D(27,1,2,3)           179.993          estimate D2E/DX2                !
 ! D4    D(27,1,2,28)            0.0031         estimate D2E/DX2                !
 ! D5    D(2,1,26,25)           -0.002          estimate D2E/DX2                !
 ! D6    D(2,1,26,42)         -179.9969         estimate D2E/DX2                !
 ! D7    D(27,1,26,25)        -179.998          estimate D2E/DX2                !
 ! D8    D(27,1,26,42)           0.0071         estimate D2E/DX2                !
 ! D9    D(1,2,3,4)              0.0055         estimate D2E/DX2                !
 ! D10   D(1,2,3,29)          -180.0            estimate D2E/DX2                !
 ! D11   D(28,2,3,4)           179.9954         estimate D2E/DX2                !
 ! D12   D(28,2,3,29)           -0.0101         estimate D2E/DX2                !
 ! D13   D(2,3,4,5)            179.9948         estimate D2E/DX2                !
 ! D14   D(2,3,4,25)            -0.0031         estimate D2E/DX2                !
 ! D15   D(29,3,4,5)             0.0004         estimate D2E/DX2                !
 ! D16   D(29,3,4,25)         -179.9975         estimate D2E/DX2                !
 ! D17   D(3,4,5,6)            179.9997         estimate D2E/DX2                !
 ! D18   D(3,4,5,30)             0.0013         estimate D2E/DX2                !
 ! D19   D(25,4,5,6)            -0.0024         estimate D2E/DX2                !
 ! D20   D(25,4,5,30)          179.9992         estimate D2E/DX2                !
 ! D21   D(3,4,25,24)          179.9998         estimate D2E/DX2                !
 ! D22   D(3,4,25,26)           -0.0018         estimate D2E/DX2                !
 ! D23   D(5,4,25,24)            0.0019         estimate D2E/DX2                !
 ! D24   D(5,4,25,26)         -179.9998         estimate D2E/DX2                !
 ! D25   D(4,5,6,7)           -179.9982         estimate D2E/DX2                !
 ! D26   D(4,5,6,23)            -0.0003         estimate D2E/DX2                !
 ! D27   D(30,5,6,7)             0.0002         estimate D2E/DX2                !
 ! D28   D(30,5,6,23)          179.9981         estimate D2E/DX2                !
 ! D29   D(5,6,7,8)           -179.9982         estimate D2E/DX2                !
 ! D30   D(5,6,7,31)             0.0021         estimate D2E/DX2                !
 ! D31   D(23,6,7,8)             0.0039         estimate D2E/DX2                !
 ! D32   D(23,6,7,31)         -179.9958         estimate D2E/DX2                !
 ! D33   D(5,6,23,22)          179.9981         estimate D2E/DX2                !
 ! D34   D(5,6,23,24)            0.0035         estimate D2E/DX2                !
 ! D35   D(7,6,23,22)           -0.0039         estimate D2E/DX2                !
 ! D36   D(7,6,23,24)         -179.9986         estimate D2E/DX2                !
 ! D37   D(6,7,8,9)           -179.9994         estimate D2E/DX2                !
 ! D38   D(6,7,8,21)            -0.0008         estimate D2E/DX2                !
 ! D39   D(31,7,8,9)             0.0003         estimate D2E/DX2                !
 ! D40   D(31,7,8,21)          179.9989         estimate D2E/DX2                !
 ! D41   D(7,8,9,10)          -179.9995         estimate D2E/DX2                !
 ! D42   D(7,8,9,32)            -0.0051         estimate D2E/DX2                !
 ! D43   D(21,8,9,10)            0.0019         estimate D2E/DX2                !
 ! D44   D(21,8,9,32)          179.9964         estimate D2E/DX2                !
 ! D45   D(7,8,21,20)         -179.9967         estimate D2E/DX2                !
 ! D46   D(7,8,21,22)           -0.0022         estimate D2E/DX2                !
 ! D47   D(9,8,21,20)            0.0018         estimate D2E/DX2                !
 ! D48   D(9,8,21,22)          179.9964         estimate D2E/DX2                !
 ! D49   D(8,9,10,11)          179.9941         estimate D2E/DX2                !
 ! D50   D(8,9,10,19)           -0.0018         estimate D2E/DX2                !
 ! D51   D(32,9,10,11)          -0.0003         estimate D2E/DX2                !
 ! D52   D(32,9,10,19)        -179.9962         estimate D2E/DX2                !
 ! D53   D(9,10,11,12)         179.9982         estimate D2E/DX2                !
 ! D54   D(9,10,11,33)           0.007          estimate D2E/DX2                !
 ! D55   D(19,10,11,12)         -0.006          estimate D2E/DX2                !
 ! D56   D(19,10,11,33)       -179.9971         estimate D2E/DX2                !
 ! D57   D(9,10,19,18)        -179.9977         estimate D2E/DX2                !
 ! D58   D(9,10,19,20)          -0.0022         estimate D2E/DX2                !
 ! D59   D(11,10,19,18)          0.0063         estimate D2E/DX2                !
 ! D60   D(11,10,19,20)       -179.9981         estimate D2E/DX2                !
 ! D61   D(10,11,12,13)       -179.9963         estimate D2E/DX2                !
 ! D62   D(10,11,12,17)          0.0054         estimate D2E/DX2                !
 ! D63   D(33,11,12,13)         -0.0051         estimate D2E/DX2                !
 ! D64   D(33,11,12,17)        179.9966         estimate D2E/DX2                !
 ! D65   D(11,12,13,14)       -179.9959         estimate D2E/DX2                !
 ! D66   D(11,12,13,34)         -0.0061         estimate D2E/DX2                !
 ! D67   D(17,12,13,14)          0.0024         estimate D2E/DX2                !
 ! D68   D(17,12,13,34)        179.9922         estimate D2E/DX2                !
 ! D69   D(11,12,17,16)        179.9969         estimate D2E/DX2                !
 ! D70   D(11,12,17,18)         -0.0052         estimate D2E/DX2                !
 ! D71   D(13,12,17,16)         -0.0014         estimate D2E/DX2                !
 ! D72   D(13,12,17,18)        179.9965         estimate D2E/DX2                !
 ! D73   D(12,13,14,15)         -0.0048         estimate D2E/DX2                !
 ! D74   D(12,13,14,35)        179.9979         estimate D2E/DX2                !
 ! D75   D(34,13,14,15)       -179.9948         estimate D2E/DX2                !
 ! D76   D(34,13,14,35)          0.0079         estimate D2E/DX2                !
 ! D77   D(13,14,15,16)          0.0063         estimate D2E/DX2                !
 ! D78   D(13,14,15,36)        179.9995         estimate D2E/DX2                !
 ! D79   D(35,14,15,16)       -179.9964         estimate D2E/DX2                !
 ! D80   D(35,14,15,36)         -0.0031         estimate D2E/DX2                !
 ! D81   D(14,15,16,17)         -0.0054         estimate D2E/DX2                !
 ! D82   D(14,15,16,37)       -179.9999         estimate D2E/DX2                !
 ! D83   D(36,15,16,17)       -179.9987         estimate D2E/DX2                !
 ! D84   D(36,15,16,37)          0.0068         estimate D2E/DX2                !
 ! D85   D(15,16,17,12)          0.003          estimate D2E/DX2                !
 ! D86   D(15,16,17,18)       -179.9949         estimate D2E/DX2                !
 ! D87   D(37,16,17,12)        179.9974         estimate D2E/DX2                !
 ! D88   D(37,16,17,18)         -0.0004         estimate D2E/DX2                !
 ! D89   D(12,17,18,19)          0.0058         estimate D2E/DX2                !
 ! D90   D(12,17,18,38)       -179.9992         estimate D2E/DX2                !
 ! D91   D(16,17,18,19)       -179.9963         estimate D2E/DX2                !
 ! D92   D(16,17,18,38)         -0.0013         estimate D2E/DX2                !
 ! D93   D(17,18,19,10)         -0.0064         estimate D2E/DX2                !
 ! D94   D(17,18,19,20)        179.9982         estimate D2E/DX2                !
 ! D95   D(38,18,19,10)        179.9986         estimate D2E/DX2                !
 ! D96   D(38,18,19,20)          0.0032         estimate D2E/DX2                !
 ! D97   D(10,19,20,21)          0.006          estimate D2E/DX2                !
 ! D98   D(10,19,20,39)        179.999          estimate D2E/DX2                !
 ! D99   D(18,19,20,21)       -179.9985         estimate D2E/DX2                !
 ! D100  D(18,19,20,39)         -0.0055         estimate D2E/DX2                !
 ! D101  D(19,20,21,8)          -0.0059         estimate D2E/DX2                !
 ! D102  D(19,20,21,22)        179.9997         estimate D2E/DX2                !
 ! D103  D(39,20,21,8)        -179.9989         estimate D2E/DX2                !
 ! D104  D(39,20,21,22)          0.0067         estimate D2E/DX2                !
 ! D105  D(8,21,22,23)           0.0022         estimate D2E/DX2                !
 ! D106  D(8,21,22,40)         179.9994         estimate D2E/DX2                !
 ! D107  D(20,21,22,23)        179.9966         estimate D2E/DX2                !
 ! D108  D(20,21,22,40)         -0.0062         estimate D2E/DX2                !
 ! D109  D(21,22,23,6)           0.0009         estimate D2E/DX2                !
 ! D110  D(21,22,23,24)        179.9955         estimate D2E/DX2                !
 ! D111  D(40,22,23,6)        -179.9963         estimate D2E/DX2                !
 ! D112  D(40,22,23,24)         -0.0017         estimate D2E/DX2                !
 ! D113  D(6,23,24,25)          -0.004          estimate D2E/DX2                !
 ! D114  D(6,23,24,41)        -179.9976         estimate D2E/DX2                !
 ! D115  D(22,23,24,25)       -179.9985         estimate D2E/DX2                !
 ! D116  D(22,23,24,41)          0.0079         estimate D2E/DX2                !
 ! D117  D(23,24,25,4)           0.0013         estimate D2E/DX2                !
 ! D118  D(23,24,25,26)       -179.997          estimate D2E/DX2                !
 ! D119  D(41,24,25,4)         179.9949         estimate D2E/DX2                !
 ! D120  D(41,24,25,26)         -0.0034         estimate D2E/DX2                !
 ! D121  D(4,25,26,1)            0.0044         estimate D2E/DX2                !
 ! D122  D(4,25,26,42)         179.9992         estimate D2E/DX2                !
 ! D123  D(24,25,26,1)        -179.9973         estimate D2E/DX2                !
 ! D124  D(24,25,26,42)         -0.0025         estimate D2E/DX2                !
 --------------------------------------------------------------------------------
 Trust Radius=3.00D-01 FncErr=1.00D-07 GrdErr=1.00D-06 EigMax=2.50D+02 EigMin=1.00D-04
 Number of steps in this run=    252 maximum allowed number of steps=    252.
 GradGradGradGradGradGradGradGradGradGradGradGradGradGradGradGradGradGrad

                          Input orientation:                          
 ---------------------------------------------------------------------
 Center     Atomic      Atomic             Coordinates (Angstroms)
 Number     Number       Type             X           Y           Z
 ---------------------------------------------------------------------
      1          6           0        7.280900    0.196300   -1.109700
      2          6           0        7.336500   -0.782200   -0.122100
      3          6           0        6.159800   -1.238100    0.474000
      4          6           0        4.911700   -0.720600    0.089300
      5          6           0        3.718400   -1.168900    0.679400
      6          6           0        2.470300   -0.650800    0.294100
      7          6           0        1.276600   -1.099200    0.884400
      8          6           0        0.028100   -0.581700    0.499700
      9          6           0       -1.165400   -1.030300    1.090200
     10          6           0       -2.414000   -0.513000    0.705700
     11          6           0       -3.607200   -0.962300    1.296700
     12          6           0       -4.855300   -0.445100    0.912300
     13          6           0       -6.048500   -0.893700    1.502700
     14          6           0       -7.280900   -0.369800    1.109600
     15          6           0       -7.336500    0.608700    0.122000
     16          6           0       -6.159800    1.064700   -0.474100
     17          6           0       -4.911700    0.547200   -0.089300
     18          6           0       -3.718400    0.995600   -0.679400
     19          6           0       -2.470300    0.477500   -0.294100
     20          6           0       -1.276600    0.925900   -0.884300
     21          6           0       -0.028100    0.408400   -0.499700
     22          6           0        1.165500    0.857000   -1.090100
     23          6           0        2.414000    0.339700   -0.705600
     24          6           0        3.607200    0.788900   -1.296700
     25          6           0        4.855300    0.271700   -0.912300
     26          6           0        6.048500    0.720300   -1.502700
     27          1           0        8.196000    0.552900   -1.575200
     28          1           0        8.295100   -1.191600    0.185600
     29          1           0        6.223800   -2.003500    1.244200
     30          1           0        3.762400   -1.934400    1.452000
     31          1           0        1.320200   -1.864700    1.657100
     32          1           0       -1.121900   -1.795900    1.862900
     33          1           0       -3.564100   -1.727700    2.069400
     34          1           0       -6.025600   -1.658000    2.276300
     35          1           0       -8.196000   -0.726400    1.575100
     36          1           0       -8.295100    1.018100   -0.185700
     37          1           0       -6.223800    1.830100   -1.244300
     38          1           0       -3.762400    1.761100   -1.452000
     39          1           0       -1.320200    1.691400   -1.657000
     40          1           0        1.122000    1.622500   -1.862800
     41          1           0        3.564100    1.554400   -2.069300
     42          1           0        6.025600    1.484500   -2.276400
 ---------------------------------------------------------------------
                    Distance matrix (angstroms):
                    1          2          3          4          5
     1  C    0.000000
     2  C    1.391369   0.000000
     3  C    2.412980   1.395637   0.000000
     4  C    2.809166   2.434777   1.404832   0.000000
     5  C    4.213794   3.725934   2.451002   1.404691   0.000000
     6  C    5.082333   4.885733   3.740280   2.450969   1.405218
     7  C    6.458047   6.151091   4.902383   3.740251   2.451381
     8  C    7.469843   7.337544   6.166787   4.902782   3.741044
     9  C    8.813858   8.591480   7.354008   6.166754   4.903006
    10  C    9.888876   9.789278   8.607526   7.354517   6.167433
    11  C   11.210880  11.036757   9.805467   8.607432   7.354465
    12  C   12.320196  12.240245  11.052302   9.805484   8.607349
    13  C   13.626652  13.483717  12.256403  11.052314   9.805401
    14  C   14.740820  14.674997  13.483707  12.240244  11.036677
    15  C   14.674997  14.740798  13.626617  12.320167  11.210770
    16  C   13.483713  13.626630  12.568784  11.228661  10.193055
    17  C   12.240255  12.320178  11.228656   9.906483   8.832583
    18  C   11.036695  11.210797  10.193065   8.832603   7.863675
    19  C    9.789289   9.888870   8.832434   7.488415   6.477526
    20  C    8.591503   8.813855   7.863073   6.477184   5.637674
    21  C    7.337477   7.469769   6.476817   5.101293   4.232542
    22  C    6.151018   6.457960   5.637276   4.232472   3.708463
    23  C    4.885752   5.082336   4.232248   2.827474   2.428077
    24  C    3.725885   4.213754   3.709430   2.429260   2.783939
    25  C    2.434787   2.809177   2.429618   1.411043   2.429275
    26  C    1.395649   2.412987   2.784791   2.429603   3.709448
    27  H    1.086859   2.152378   3.398972   3.896022   5.300634
    28  H    2.152364   1.086831   2.155190   3.417384   4.603318
    29  H    3.390785   2.143933   1.087723   2.168233   2.700479
    30  H    4.845826   4.071799   2.681202   2.156653   1.088502
    31  H    6.887151   6.366571   5.021362   4.082381   2.681678
    32  H    9.133031   8.747133   7.433932   6.380145   5.022181
    33  H   11.463964  11.158841   9.866065   8.762091   7.434996
    34  H   13.855193  13.603862  12.325120  11.193133   9.886093
    35  H   15.735119  15.625049  14.407056  13.191643  11.956212
    36  H   15.625009  15.735058  14.644787  13.323598  12.241550
    37  H   13.603836  13.855150  12.873226  11.501475  10.561343
    38  H   11.158864  11.463969  10.542994   9.152838   8.312048
    39  H    8.747216   9.133076   8.311049   6.906800   6.247205
    40  H    6.366573   6.887135   6.246847   4.864426   4.582138
    41  H    4.071839   4.845853   4.583022   3.413386   3.872405
    42  H    2.143928   3.390781   3.872371   3.420493   4.593523
                    6          7          8          9         10
     6  C    0.000000
     7  C    1.405146   0.000000
     8  C    2.451813   1.405188   0.000000
     9  C    3.741138   2.451625   1.405124   0.000000
    10  C    4.903549   3.741135   2.451736   1.405148   0.000000
    11  C    6.167515   4.903084   3.741052   2.451459   1.405303
    12  C    7.354516   6.166751   4.902703   3.740250   2.450967
    13  C    8.607536   7.354020   6.166719   4.902395   3.740285
    14  C    9.789275   8.591481   7.337463   6.151096   4.885730
    15  C    9.888846   8.813834   7.469742   6.458034   5.082315
    16  C    8.832423   7.863080   6.476807   5.637383   4.232267
    17  C    7.488399   6.477174   5.101270   4.232551   2.827464
    18  C    6.477526   5.637702   4.232542   3.708580   2.428134
    19  C    5.101820   4.232506   2.827371   2.427450   1.408496
    20  C    4.232478   3.707851   2.427047   2.781678   2.427388
    21  C    2.827371   2.427104   1.407926   2.427157   2.827452
    22  C    2.427339   2.781674   2.427138   3.707925   4.232566
    23  C    1.408425   2.427388   2.827410   4.232482   5.101808
    24  C    2.428152   3.708614   4.232677   5.637774   6.477607
    25  C    2.827478   4.232563   5.101362   6.477194   7.488418
    26  C    4.232248   5.637363   6.476884   7.863084   8.832438
    27  H    6.142216   7.527095   8.503359   9.861374  10.904620
    28  H    5.850857   7.053808   8.295416   9.505019  10.743176
    29  H    4.101372   5.042024   6.400195   7.454603   8.781979
    30  H    2.158213   2.683082   4.084320   5.023098   6.381634
    31  H    2.157325   1.088557   2.157588   2.682500   4.083688
    32  H    4.083661   2.682472   2.157567   1.088623   2.157421
    33  H    6.381645   5.023108   4.084259   2.683088   2.158218
    34  H    8.782021   7.454647   6.400157   5.042062   4.101398
    35  H   10.743213   9.505062   8.295375   7.053851   5.850891
    36  H   10.904553   9.861314   8.503222   7.527050   6.142166
    37  H    9.171091   8.328755   6.924202   6.262523   4.879262
    38  H    6.907436   6.247528   4.864744   4.582478   3.412533
    39  H    4.864214   4.581433   3.411195   3.870235   3.411470
    40  H    3.411455   3.870227   3.411235   4.581458   4.864242
    41  H    3.412472   4.582422   4.864769   6.247502   6.907420
    42  H    4.879256   6.262521   6.924299   8.328787   9.171138
                   11         12         13         14         15
    11  C    0.000000
    12  C    1.404640   0.000000
    13  C    2.450936   1.404828   0.000000
    14  C    3.725874   2.434776   1.395639   0.000000
    15  C    4.213744   2.809167   2.412982   1.391369   0.000000
    16  C    3.709478   2.429675   2.784862   2.413040   1.395670
    17  C    2.429260   1.411043   2.429603   2.809156   2.434766
    18  C    2.784010   2.429335   3.709499   4.213816   3.725934
    19  C    2.428211   2.827511   4.232280   5.082338   4.885720
    20  C    3.708606   4.232553   5.637352   6.458026   6.151068
    21  C    4.232709   5.101379   6.476904   7.469843   7.337530
    22  C    5.637848   6.477276   7.863165   8.813932   8.591557
    23  C    6.477597   7.488407   8.832427   9.888854   9.789256
    24  C    7.863841   8.832686  10.193151  11.210869  11.036746
    25  C    8.832686   9.906499  11.228679  12.320185  12.240234
    26  C   10.193151  11.228679  12.568804  13.626641  13.483706
    27  H   12.241698  13.323667  14.644859  15.735119  15.625049
    28  H   11.956248  13.191602  14.407025  15.625009  15.735058
    29  H    9.886122  11.193088  12.325089  13.603824  13.855131
    30  H    7.435059   8.762080   9.866072  11.158839  11.463936
    31  H    5.022299   6.380187   7.434004   8.747194   9.133055
    32  H    2.681825   4.082472   5.021464   6.366671   6.887241
    33  H    1.088467   2.156650   2.681221   4.071819   4.845837
    34  H    2.700421   2.168231   1.087720   2.143928   3.390781
    35  H    4.603286   3.417413   2.155223   1.086859   2.152378
    36  H    5.300557   3.895996   3.398954   2.152364   1.086831
    37  H    4.593558   3.420563   3.872444   3.390850   2.143990
    38  H    3.872512   3.413453   4.583063   4.845861   4.071817
    39  H    4.582231   4.864449   6.246861   6.887130   6.366549
    40  H    6.247317   6.906827   8.311072   9.133080   8.747196
    41  H    8.312116   9.152827  10.542981  11.463942  11.158818
    42  H   10.561473  11.501528  12.873279  13.855193  13.603862
                   16         17         18         19         20
    16  C    0.000000
    17  C    1.404860   0.000000
    18  C    2.450991   1.404723   0.000000
    19  C    3.740269   2.450966   1.405218   0.000000
    20  C    4.902364   3.740239   2.451373   1.405104   0.000000
    21  C    6.166776   4.902779   3.741044   2.451813   1.405160
    22  C    7.354088   6.166842   4.903097   3.741213   2.451725
    23  C    8.607512   7.354506   6.167432   4.903540   3.741135
    24  C    9.805459   8.607432   7.354468   6.167510   4.903095
    25  C   11.052298   9.805484   8.607358   7.354518   6.166762
    26  C   12.256395  11.052314   9.805404   8.607533   7.354032
    27  H   14.407059  13.191654  11.956227  10.743224   9.505084
    28  H   14.644802  13.323609  12.241579  10.904579   9.861335
    29  H   12.873226  11.501463  10.561353   9.171101   8.328739
    30  H   10.542984   9.152811   8.312048   6.907436   6.247490
    31  H    8.311065   6.906790   6.247242   4.864255   4.581433
    32  H    6.247002   4.864544   4.582311   3.411624   3.870302
    33  H    4.583072   3.413383   3.872476   3.412541   4.582422
    34  H    3.872442   3.420489   4.593575   4.879290   6.262502
    35  H    3.399025   3.896012   5.300656   6.142225   7.527074
    36  H    2.155192   3.417373   4.603306   5.850837   7.053785
    37  H    1.087723   2.168286   2.700469   4.101362   5.042020
    38  H    2.681192   2.156709   1.088502   2.158213   2.683103
    39  H    5.021328   4.082371   2.681642   2.157262   1.088557
    40  H    7.433992   6.380212   5.022242   4.083683   2.682535
    41  H    9.866038   8.762080   7.434977   6.381617   5.023108
    42  H   12.325116  11.193144   9.886100   8.782020   7.454670
                   21         22         23         24         25
    21  C    0.000000
    22  C    1.405167   0.000000
    23  C    2.451727   1.405059   0.000000
    24  C    3.741042   2.451371   1.405314   0.000000
    25  C    4.902705   3.740162   2.450978   1.404640   0.000000
    26  C    6.166714   4.902307   3.740296   2.450936   1.404828
    27  H    8.295384   7.053774   5.850913   4.603297   3.417424
    28  H    8.503252   7.526976   6.142186   5.300566   3.896005
    29  H    6.924211   6.262413   4.879230   4.593503   3.420500
    30  H    4.864744   4.582366   3.412470   3.872441   3.413389
    31  H    3.411258   3.870231   3.411470   4.582237   4.864458
    32  H    3.411336   4.581516   4.864213   6.247291   6.906781
    33  H    4.864822   6.247578   6.907420   8.312127   9.152837
    34  H    6.924319   8.328853   9.171117  10.561462  11.501517
    35  H    8.503361   9.861447  10.904598  12.241687  13.323655
    36  H    8.295397   9.505096  10.743153  11.956237  13.191591
    37  H    6.400184   7.454694   8.781975   9.886122  11.193091
    38  H    4.084320   5.023203   6.381646   7.435072   8.762097
    39  H    2.157534   2.682593   4.083688   5.022310   6.380198
    40  H    2.157501   1.088553   2.157302   2.681712   4.082357
    41  H    4.084221   2.682999   2.158218   1.088466   2.156656
    42  H    6.400151   5.041987   4.101419   2.700431   2.168238
                   26         27         28         29         30
    26  C    0.000000
    27  H    2.155234   0.000000
    28  H    3.398960   2.480628   0.000000
    29  H    3.872373   4.286464   2.463757   0.000000
    30  H    4.583005   5.916706   4.764545   2.471122   0.000000
    31  H    6.246870   7.973028   7.160140   4.922910   2.451788
    32  H    8.311027  10.205913   9.584279   7.374632   4.903510
    33  H   10.542992  12.521350  12.019847   9.826495   7.355373
    34  H   12.873269  14.898860  14.480021  12.297658   9.826536
    35  H   14.644848  16.740928  16.556071  14.480025  12.019890
    36  H   14.407013  16.556071  16.740830  14.898763  12.521287
    37  H   12.325087  14.480033  14.898783  13.260161  11.007529
    38  H    9.866083  12.019911  12.521321  11.007538   8.872009
    39  H    7.434015   9.584411  10.205923   8.887136   6.974606
    40  H    5.021358   7.160184   7.972983   6.987824   5.532734
    41  H    2.681231   4.764623   5.916709   5.541835   4.960907
    42  H    1.087721   2.463777   4.286442   4.959844   5.541833
                   31         32         33         34         35
    31  H    0.000000
    32  H    2.451722   0.000000
    33  H    4.903585   2.451863   0.000000
    34  H    7.374748   4.923026   2.471163   0.000000
    35  H    9.584389   7.160276   4.764602   2.463777   0.000000
    36  H   10.205902   7.973090   5.916693   4.286442   2.480628
    37  H    8.887160   6.987986   5.541891   4.959914   4.286523
    38  H    6.974651   5.532906   4.960978   5.541890   5.916739
    39  H    5.531801   4.958859   5.532756   6.987855   7.973008
    40  H    4.958784   5.531852   6.974638   8.887183  10.205960
    41  H    5.532756   6.974618   8.871993  11.007547  12.521328
    42  H    6.987872   8.887158  11.007568  13.260234  14.898860
                   36         37         38         39         40
    36  H    0.000000
    37  H    2.463790   0.000000
    38  H    4.764550   2.471111   0.000000
    39  H    7.160118   4.922891   2.451780   0.000000
    40  H    9.584349   7.374715   4.903604   2.451824   0.000000
    41  H   12.019825   9.826476   7.355364   4.903585   2.451761
    42  H   14.480021  12.297661   9.826550   7.374771   4.922946
                   41         42
    41  H    0.000000
    42  H    2.471186   0.000000
 Stoichiometry    C26H16
 Framework group  D2H[C2'(C.C),SG"(C24H16)]
 Deg. of freedom    21
 Full point group                 D2H     NOp   8
 Largest Abelian subgroup         D2H     NOp   8
 Largest concise Abelian subgroup D2      NOp   4
                         Standard orientation:                         
 ---------------------------------------------------------------------
 Center     Atomic      Atomic             Coordinates (Angstroms)
 Number     Number       Type             X           Y           Z
 ---------------------------------------------------------------------
      1          6           0       -7.337507    0.695663    0.000000
      2          6           0       -7.337507   -0.695663   -0.000000
      3          6           0       -6.128191   -1.392405    0.000000
      4          6           0       -4.902736   -0.705517    0.000000
      5          6           0       -3.677189   -1.391949    0.000000
      6          6           0       -2.451768   -0.704213    0.000000
      7          6           0       -1.225808   -1.390842    0.000000
      8          6           0       -0.000000   -0.703938   -0.000000
      9          6           0        1.225808   -1.390842   -0.000000
     10          6           0        2.451768   -0.704213    0.000000
     11          6           0        3.677189   -1.391949    0.000000
     12          6           0        4.902736   -0.705517    0.000000
     13          6           0        6.128191   -1.392405    0.000000
     14          6           0        7.337507   -0.695663    0.000000
     15          6           0        7.337507    0.695663    0.000000
     16          6           0        6.128191    1.392405    0.000000
     17          6           0        4.902736    0.705517   -0.000000
     18          6           0        3.677189    1.391949    0.000000
     19          6           0        2.451768    0.704213   -0.000000
     20          6           0        1.225808    1.390842   -0.000000
     21          6           0        0.000000    0.703938   -0.000000
     22          6           0       -1.225808    1.390842    0.000000
     23          6           0       -2.451768    0.704213    0.000000
     24          6           0       -3.677189    1.391949    0.000000
     25          6           0       -4.902736    0.705517    0.000000
     26          6           0       -6.128191    1.392405    0.000000
     27          1           0       -8.278065    1.240284    0.000000
     28          1           0       -8.278065   -1.240284   -0.000000
     29          1           0       -6.148803   -2.479932    0.000000
     30          1           0       -3.677681   -2.480451    0.000000
     31          1           0       -1.225893   -2.479399    0.000000
     32          1           0        1.225893   -2.479399   -0.000000
     33          1           0        3.677681   -2.480451   -0.000000
     34          1           0        6.148803   -2.479932    0.000000
     35          1           0        8.278065   -1.240284    0.000000
     36          1           0        8.278065    1.240284    0.000000
     37          1           0        6.148803    2.479932    0.000000
     38          1           0        3.677681    2.480451    0.000000
     39          1           0        1.225893    2.479399   -0.000000
     40          1           0       -1.225893    2.479399    0.000000
     41          1           0       -3.677681    2.480451    0.000000
     42          1           0       -6.148803    2.479932    0.000000
 ---------------------------------------------------------------------
 Rotational constants (GHZ):           1.1425799           0.0717907           0.0675466
 Standard basis: def2SVPP (5D, 7F)
 There are    82 symmetry adapted cartesian basis functions of AG  symmetry.
 There are    77 symmetry adapted cartesian basis functions of B1G symmetry.
 There are    25 symmetry adapted cartesian basis functions of B2G symmetry.
 There are    27 symmetry adapted cartesian basis functions of B3G symmetry.
 There are    25 symmetry adapted cartesian basis functions of AU  symmetry.
 There are    27 symmetry adapted cartesian basis functions of B1U symmetry.
 There are    82 symmetry adapted cartesian basis functions of B2U symmetry.
 There are    77 symmetry adapted cartesian basis functions of B3U symmetry.
 There are    75 symmetry adapted basis functions of AG  symmetry.
 There are    71 symmetry adapted basis functions of B1G symmetry.
 There are    25 symmetry adapted basis functions of B2G symmetry.
 There are    27 symmetry adapted basis functions of B3G symmetry.
 There are    25 symmetry adapted basis functions of AU  symmetry.
 There are    27 symmetry adapted basis functions of B1U symmetry.
 There are    75 symmetry adapted basis functions of B2U symmetry.
 There are    71 symmetry adapted basis functions of B3U symmetry.
   396 basis functions,   714 primitive gaussians,   422 cartesian basis functions
    86 alpha electrons       86 beta electrons
       nuclear repulsion energy      1908.4680300144 Hartrees.
 NAtoms=   42 NActive=   42 NUniq=   11 SFac= 4.00D+00 NAtFMM=   60 NAOKFM=F Big=F
 Integral buffers will be    131072 words long.
 Raffenetti 2 integral format.
 Two-electron integral symmetry is turned on.
 Nuclear repulsion after empirical dispersion term =     1908.3600188395 Hartrees.
 One-electron integrals computed using PRISM.
   8 Symmetry operations used in ECPInt.
 ECPInt:  NShTT=   17766 NPrTT=   71262 LenC2=   14373 LenP2D=   38135.
 LDataN:  DoStor=T MaxTD1= 4 Len=   56
 NBasis=   396 RedAO= T EigKep=  2.10D-04  NBF=    75    71    25    27    25    27    75    71
 NBsUse=   396 1.00D-06 EigRej= -1.00D+00 NBFU=    75    71    25    27    25    27    75    71
 ExpMin= 1.22D-01 ExpMax= 1.24D+03 ExpMxC= 1.86D+02 IAcc=3 IRadAn=         5 AccDes= 0.00D+00
 Harris functional with IExCor=  402 and IRadAn=       5 diagonalized for initial guess.
 HarFok:  IExCor=  402 AccDes= 0.00D+00 IRadAn=         5 IDoV= 1 UseB2=F ITyADJ=14
 ICtDFT=  3500011 ScaDFX=  1.000000  1.000000  1.000000  1.000000
 FoFCou: FMM=F IPFlag=           0 FMFlag=      100000 FMFlg1=           0
         NFxFlg=           0 DoJE=T BraDBF=F KetDBF=T FulRan=T
         wScrn=  0.000000 ICntrl=       500 IOpCl=  0 I1Cent=   200000004 NGrid=           0
         NMat0=    1 NMatS0=      1 NMatT0=    0 NMatD0=    1 NMtDS0=    0 NMtDT0=    0
 Petite list used in FoFCou.
 Initial guess orbital symmetries:
       Occupied  (B3U) (AG) (B1G) (B2U) (B1G) (B2U) (B3U) (AG)
                 (B2U) (B1G) (B2U) (B1G) (AG) (B3U) (AG) (B3U)
                 (B2U) (AG) (B3U) (B1G) (B2U) (AG) (B3U) (AG) (B1G)
                 (B2U) (AG) (B3U) (AG) (B3U) (AG) (B2U) (B1G) (B3U)
                 (B2U) (AG) (B1G) (B2U) (B3U) (B1G) (AG) (B2U)
                 (AG) (B3U) (B3U) (AG) (B1G) (B3U) (B2U) (AG) (AG)
                 (B3U) (B1G) (AG) (B3U) (AG) (B2U) (B2U) (B1G)
                 (B3U) (B2U) (B3U) (B1G) (B2U) (B1G) (AG) (B1U)
                 (B1G) (B2G) (B3U) (B1U) (B2U) (AG) (B1G) (B3U)
                 (B2G) (AG) (B1U) (B3G) (AU) (B2G) (B3G) (B1U)
                 (AU) (B3G) (AU)
       Virtual   (B2G) (B1U) (B2G) (B3G) (B1U) (AU) (B2G) (B1U)
                 (B3G) (AU) (AG) (B3U) (B2U) (B1G) (AG) (B3G) (B3U)
                 (B2U) (AG) (AU) (B1G) (B3U) (AG) (B3G) (B2U) (B3U)
                 (B1G) (B2U) (AG) (B2U) (B1G) (B2U) (B3U) (B1G)
                 (B1G) (B3U) (B2U) (AG) (AG) (B2U) (B1G) (B3U)
                 (AG) (B3U) (AG) (AG) (B3U) (B3U) (AG) (AG) (B3U)
                 (B3U) (B2U) (B1G) (AG) (B2U) (B1G) (B2U) (B1G)
                 (B2U) (B3U) (AG) (B1G) (B3U) (B2U) (B1G) (B1U)
                 (B2U) (AG) (B2G) (B3U) (AG) (B1U) (B1G) (B3G)
                 (B2U) (B3U) (B1G) (B2G) (B2U) (AG) (AU) (B1G)
                 (B1U) (B3U) (B2U) (AG) (B3G) (B1G) (B2G) (B1U)
                 (AU) (B2U) (B2G) (B3G) (B1U) (AU) (B2G) (B3U)
                 (B2U) (AG) (B3G) (B1G) (AG) (B3U) (AG) (B2U) (B1U)
                 (B2U) (B1G) (AG) (B3U) (B3U) (B1G) (B2U) (B1G)
                 (AU) (AG) (B1U) (B1G) (B2G) (B2U) (B1G) (B3U)
                 (B2U) (B3G) (B2U) (B3U) (AG) (B1G) (AU) (B1G)
                 (AG) (B3G) (AG) (B3U) (B2U) (AU) (B3U) (B3G) (B2U)
                 (B3U) (B1G) (AG) (B2U) (B1G) (AG) (B2U) (B1G)
                 (B3U) (B2U) (AG) (B3U) (B1G) (B2U) (B1G) (AG)
                 (B2U) (B2G) (B1U) (B1U) (B2U) (B1G) (B3U) (B2G)
                 (B1U) (B2G) (B1G) (AG) (B3U) (AG) (B2U) (B3U)
                 (AG) (B3U) (AU) (B1G) (B3G) (AG) (B3U) (B2G) (AU)
                 (B1U) (B2U) (B3G) (B2G) (AU) (B1U) (B2G) (B1U)
                 (B2G) (B3G) (AU) (B1U) (B1G) (B1G) (B2U) (B2U)
                 (B1G) (B2U) (B1G) (AG) (AG) (B3U) (B3U) (AG) (AG)
                 (B3U) (B3U) (AG) (B3G) (B3U) (B1G) (AG) (B3U)
                 (AU) (AG) (B2U) (B3G) (B3U) (B3G) (B1G) (B2U)
                 (AU) (B1G) (B1U) (B2U) (B2G) (AG) (B2U) (B1G)
                 (B1U) (B3U) (B2U) (AG) (B1G) (B2G) (AG) (B3U)
                 (AG) (B2U) (B3U) (B1U) (B1G) (AU) (B3U) (B3G)
                 (B2U) (B1G) (B2U) (AG) (B2G) (B3G) (B1G) (B3U)
                 (AU) (B3G) (B1U) (AU) (B2G) (B2U) (B1U) (AG) (B2G)
                 (B2G) (B1U) (B1G) (B3G) (AU) (B3U) (B2U) (B1G)
                 (AG) (B3U) (AU) (AG) (B3G) (B1G) (B3U) (B2U) (B2U)
                 (AG) (B3U) (AU) (B1G) (B3G) (B2U) (AG) (B3G) (AU)
                 (B1G) (B3U) (B2U) (AG) (B1G) (AG) (B2U) (B3U)
                 (B1G) (B3U) (B2U) (AG) (B1G) (B2U) (B2U) (B1G)
                 (B2U) (B1G) (B1G) (B2U)
 The electronic state of the initial guess is 1-AG.
 Requested convergence on RMS density matrix=1.00D-08 within 128 cycles.
 Requested convergence on MAX density matrix=1.00D-06.
 Requested convergence on             energy=1.00D-06.
 No special actions if energy rises.
 Integral accuracy reduced to 1.0D-05 until final iterations.
 Initial convergence to 1.0D-05 achieved.  Increase integral accuracy.
 SCF Done:  E(RB3LYP) =  -999.774818296     A.U. after   14 cycles
            NFock= 14  Conv=0.70D-08     -V/T= 2.0101

 **********************************************************************

            Population analysis using the SCF Density.

 **********************************************************************

 Orbital symmetries:
       Occupied  (AG) (B3U) (AG) (B2U) (B1G) (B2U) (B3U) (AG) (B1G)
                 (B2U) (B1G) (B2U) (B2U) (AG) (B3U) (B1G) (B3U)
                 (AG) (B3U) (AG) (B1G) (B2U) (AG) (B3U) (B1G) (B2U)
                 (AG) (B3U) (AG) (B3U) (AG) (B2U) (B1G) (B3U) (B2U)
                 (AG) (B1G) (B2U) (B3U) (B1G) (AG) (B2U) (AG) (B3U)
                 (B3U) (AG) (B1G) (B3U) (B2U) (AG) (AG) (B3U) (B1G)
                 (B3U) (AG) (B2U) (B1G) (B2U) (AG) (B3U) (B1G)
                 (B1U) (B2U) (B2U) (B1G) (B2G) (B3U) (AG) (B1U)
                 (B1G) (B3U) (B2G) (AG) (B2U) (B3U) (AG) (B1G)
                 (B1U) (B3G) (AU) (B2G) (B3G) (B1U) (AU) (B3G)
                 (AU)
       Virtual   (B2G) (B1U) (B2G) (B3G) (B1U) (AU) (B2G) (B1U)
                 (AG) (B3U) (B2U) (B3G) (B1G) (AG) (B3U) (B2U)
                 (AG) (B1G) (B3U) (AU) (B2U) (AG) (B1G) (B3U) (B2U)
                 (B3G) (AU) (B1G) (B2U) (B3G) (AG) (B1G) (B2U)
                 (AG) (B3U) (B3U) (B2U) (AG) (B1G) (B3U) (AG) (B1G)
                 (B2U) (B3U) (AG) (AG) (B3U) (AG) (B3U) (B2U) (B3U)
                 (B1G) (B2U) (B3U) (B1G) (AG) (AG) (B2U) (B1G)
                 (B3U) (AG) (AG) (B2U) (B3U) (B1U) (B1G) (B2U)
                 (B2G) (B1G) (B3U) (B1U) (B2U) (AG) (B3G) (B3U)
                 (B1G) (B2G) (B2U) (AU) (AG) (B1G) (B1U) (B3U)
                 (B2U) (B1G) (AG) (B2U) (B3G) (B2G) (B1U) (AU)
                 (B1G) (B3G) (B2G) (B1U) (AU) (B2U) (B2G) (AG)
                 (B3G) (B3U) (B1U) (AG) (B2U) (B1G) (B3U) (B2U)
                 (AG) (AU) (B2U) (B1G) (B3U) (AG) (B1U) (B1G) (B2G)
                 (B3U) (B1G) (B3G) (B3U) (B2U) (AG) (B2U) (AG)
                 (B1G) (AU) (B3G) (B3U) (B2U) (AG) (B1G) (B1G)
                 (AU) (B3G) (B2U) (B2U) (B1G) (B3U) (AG) (B3U)
                 (B2U) (B1G) (B3U) (B2U) (AG) (B1G) (B2U) (AG)
                 (B1G) (B3U) (B2U) (AG) (B3U) (B1G) (B2U) (B1G)
                 (AG) (B2U) (B2U) (B1G) (B3U) (B2G) (B1U) (B1U)
                 (B1G) (B2G) (AG) (B1U) (B3U) (B2G) (AG) (B3U)
                 (AG) (B2U) (B3U) (B1G) (AG) (B3U) (AU) (B2U) (B3G)
                 (B2G) (AU) (B1U) (B3G) (B2G) (AU) (B1U) (B1G)
                 (B1G) (B2G) (B1U) (B2U) (B2G) (B2U) (B3G) (AU)
                 (B1U) (B1G) (B2U) (B1G) (AG) (AG) (B3U) (B3U)
                 (AG) (AG) (B3U) (B3U) (B3G) (AG) (B3U) (AU) (B3U)
                 (B1G) (AG) (AG) (B2U) (B3G) (B3G) (AU) (B1U) (B2U)
                 (B1G) (B3U) (B1G) (B2U) (B2G) (AG) (B1U) (B2U)
                 (B1G) (B2U) (B3U) (AG) (B2G) (B1G) (B3U) (AG)
                 (AG) (B2U) (B3U) (B1U) (B1G) (B3U) (AU) (B3G)
                 (B1G) (B2U) (AG) (B2G) (B2U) (B3G) (B3U) (B1G)
                 (AU) (B3G) (B1U) (B2G) (AU) (B2U) (B1U) (B2G)
                 (AG) (B2G) (B1U) (B3G) (B1G) (AU) (B3U) (B2U)
                 (B1G) (AG) (AU) (B3U) (B3G) (AG) (B1G) (B2U) (B2U)
                 (B3U) (B3U) (AU) (AG) (B1G) (B3G) (B3G) (AU) (AG)
                 (B2U) (B3U) (B1G) (B2U) (AG) (B1G) (B2U) (AG)
                 (B1G) (B3U) (B3U) (B2U) (AG) (B1G) (B2U) (B2U)
                 (B1G) (B2U) (B1G) (B1G) (B2U)
 The electronic state is 1-AG.
 Alpha  occ. eigenvalues --  -10.19673 -10.19663 -10.19661 -10.19645 -10.19633
 Alpha  occ. eigenvalues --  -10.19630 -10.19616 -10.19616 -10.19588 -10.19588
 Alpha  occ. eigenvalues --  -10.19097 -10.19093 -10.19079 -10.19079 -10.19078
 Alpha  occ. eigenvalues --  -10.19078 -10.19064 -10.19064 -10.19050 -10.19050
 Alpha  occ. eigenvalues --  -10.19049 -10.19049 -10.19009 -10.19009 -10.18982
 Alpha  occ. eigenvalues --  -10.18982  -0.89303  -0.88196  -0.86444  -0.84021
 Alpha  occ. eigenvalues --   -0.80945  -0.78854  -0.77778  -0.77309  -0.76018
 Alpha  occ. eigenvalues --   -0.74276  -0.73602  -0.70563  -0.68219  -0.67007
 Alpha  occ. eigenvalues --   -0.63663  -0.61848  -0.61392  -0.60519  -0.59882
 Alpha  occ. eigenvalues --   -0.59406  -0.57941  -0.53416  -0.53195  -0.52220
 Alpha  occ. eigenvalues --   -0.50906  -0.49401  -0.48462  -0.46742  -0.46447
 Alpha  occ. eigenvalues --   -0.45813  -0.45369  -0.45314  -0.43007  -0.42903
 Alpha  occ. eigenvalues --   -0.42682  -0.42043  -0.42042  -0.41920  -0.41437
 Alpha  occ. eigenvalues --   -0.40687  -0.40618  -0.39802  -0.38517  -0.38410
 Alpha  occ. eigenvalues --   -0.37260  -0.35553  -0.35394  -0.35253  -0.34258
 Alpha  occ. eigenvalues --   -0.33772  -0.33430  -0.31895  -0.31495  -0.30069
 Alpha  occ. eigenvalues --   -0.27881  -0.27749  -0.25180  -0.24581  -0.20678
 Alpha  occ. eigenvalues --   -0.16433
 Alpha virt. eigenvalues --   -0.11071  -0.06381  -0.02077  -0.01858   0.01043
 Alpha virt. eigenvalues --    0.01467   0.02713   0.03261   0.06594   0.06611
 Alpha virt. eigenvalues --    0.06766   0.06929   0.07868   0.08339   0.09195
 Alpha virt. eigenvalues --    0.09538   0.10717   0.11519   0.12342   0.12463
 Alpha virt. eigenvalues --    0.13183   0.14060   0.14612   0.16510   0.16795
 Alpha virt. eigenvalues --    0.17083   0.20030   0.20341   0.21151   0.21186
 Alpha virt. eigenvalues --    0.24028   0.24961   0.26003   0.26937   0.26973
 Alpha virt. eigenvalues --    0.27266   0.28138   0.28300   0.28564   0.29000
 Alpha virt. eigenvalues --    0.29052   0.30263   0.30461   0.31153   0.31329
 Alpha virt. eigenvalues --    0.32623   0.33513   0.34322   0.34532   0.35107
 Alpha virt. eigenvalues --    0.35636   0.35999   0.36121   0.36676   0.36961
 Alpha virt. eigenvalues --    0.37696   0.38641   0.38752   0.39542   0.41264
 Alpha virt. eigenvalues --    0.42867   0.43160   0.43527   0.43895   0.44362
 Alpha virt. eigenvalues --    0.44581   0.44713   0.45288   0.46482   0.46571
 Alpha virt. eigenvalues --    0.46687   0.47102   0.47551   0.47571   0.47575
 Alpha virt. eigenvalues --    0.48491   0.48543   0.49296   0.49597   0.49788
 Alpha virt. eigenvalues --    0.50444   0.50951   0.51319   0.51650   0.52088
 Alpha virt. eigenvalues --    0.52262   0.52276   0.52509   0.54039   0.54828
 Alpha virt. eigenvalues --    0.55486   0.57693   0.58131   0.58370   0.58468
 Alpha virt. eigenvalues --    0.60810   0.62284   0.62615   0.64055   0.64104
 Alpha virt. eigenvalues --    0.65391   0.65410   0.66443   0.66731   0.67166
 Alpha virt. eigenvalues --    0.67211   0.68052   0.68490   0.68802   0.69365
 Alpha virt. eigenvalues --    0.69371   0.69494   0.69864   0.70120   0.70823
 Alpha virt. eigenvalues --    0.70882   0.71529   0.72694   0.72732   0.73041
 Alpha virt. eigenvalues --    0.73681   0.74620   0.74987   0.75014   0.76202
 Alpha virt. eigenvalues --    0.76935   0.77109   0.77534   0.78471   0.79034
 Alpha virt. eigenvalues --    0.79408   0.79900   0.80499   0.80738   0.80884
 Alpha virt. eigenvalues --    0.81737   0.81942   0.82596   0.82754   0.82898
 Alpha virt. eigenvalues --    0.83723   0.85356   0.88582   0.89450   0.89568
 Alpha virt. eigenvalues --    0.91070   0.92114   0.95379   0.97393   1.02038
 Alpha virt. eigenvalues --    1.06125   1.07944   1.10562   1.11958   1.12289
 Alpha virt. eigenvalues --    1.12379   1.14621   1.15716   1.19882   1.20320
 Alpha virt. eigenvalues --    1.20586   1.21064   1.21317   1.22430   1.23380
 Alpha virt. eigenvalues --    1.23754   1.24934   1.25479   1.26103   1.26788
 Alpha virt. eigenvalues --    1.28349   1.28580   1.29095   1.29388   1.29845
 Alpha virt. eigenvalues --    1.31556   1.33784   1.33966   1.35707   1.36450
 Alpha virt. eigenvalues --    1.36729   1.37448   1.38490   1.39298   1.40646
 Alpha virt. eigenvalues --    1.42063   1.42386   1.45096   1.45703   1.46332
 Alpha virt. eigenvalues --    1.46748   1.47389   1.48260   1.48615   1.48734
 Alpha virt. eigenvalues --    1.49266   1.49268   1.49609   1.50778   1.52804
 Alpha virt. eigenvalues --    1.54480   1.67899   1.68725   1.70969   1.71489
 Alpha virt. eigenvalues --    1.72148   1.74332   1.74385   1.79750   1.80340
 Alpha virt. eigenvalues --    1.80982   1.82846   1.83054   1.83250   1.83452
 Alpha virt. eigenvalues --    1.83481   1.84411   1.85473   1.85980   1.86973
 Alpha virt. eigenvalues --    1.87556   1.87766   1.87923   1.88180   1.88206
 Alpha virt. eigenvalues --    1.89054   1.89474   1.91553   1.95512   1.97898
 Alpha virt. eigenvalues --    1.97986   1.98277   2.01428   2.01462   2.04935
 Alpha virt. eigenvalues --    2.05966   2.06150   2.07210   2.07281   2.11303
 Alpha virt. eigenvalues --    2.11570   2.11917   2.14585   2.17511   2.17933
 Alpha virt. eigenvalues --    2.18442   2.19091   2.21135   2.22055   2.22112
 Alpha virt. eigenvalues --    2.22620   2.22952   2.24542   2.26248   2.26301
 Alpha virt. eigenvalues --    2.26377   2.27813   2.28294   2.29826   2.29871
 Alpha virt. eigenvalues --    2.32235   2.32490   2.32842   2.33807   2.35314
 Alpha virt. eigenvalues --    2.35529   2.37442   2.38607   2.43932   2.45981
 Alpha virt. eigenvalues --    2.47791   2.47919   2.53930   2.54817   2.55992
 Alpha virt. eigenvalues --    2.60115   2.60150   2.60941   2.61640   2.62947
 Alpha virt. eigenvalues --    2.63160   2.64844   2.65017   2.65657   2.66506
 Alpha virt. eigenvalues --    2.67596   2.68918   2.69209   2.69916   2.70017
 Alpha virt. eigenvalues --    2.73189   2.73618   2.80746   2.81899   2.83934
 Alpha virt. eigenvalues --    2.85301   2.87134   2.88923   2.89235   2.94359
 Alpha virt. eigenvalues --    2.94611   2.94947   3.01885   3.08916   3.22206
 Alpha virt. eigenvalues --    3.32795   3.42042   3.47532   3.51324   3.51434
          Condensed to atoms (all electrons):
               1          2          3          4          5          6
     1  C    5.245978   0.129806   0.146855  -0.156115  -0.002270   0.000306
     2  C    0.129806   5.245978   0.230961   0.142703   0.019678  -0.001340
     3  C    0.146855   0.230961   5.459089   0.195630  -0.159523   0.019286
     4  C   -0.156115   0.142703   0.195630   5.431382   0.235705   0.143392
     5  C   -0.002270   0.019678  -0.159523   0.235705   5.741074   0.203152
     6  C    0.000306  -0.001340   0.019286   0.143392   0.203152   5.420090
     7  C   -0.000005   0.000016  -0.000907   0.020378  -0.163822   0.218186
     8  C    0.000000  -0.000000   0.000011  -0.001490   0.020486   0.144343
     9  C    0.000000  -0.000000  -0.000000   0.000012  -0.000913   0.020352
    10  C   -0.000000   0.000000  -0.000000   0.000000   0.000011  -0.001473
    11  C   -0.000000   0.000000  -0.000000  -0.000000   0.000000   0.000011
    12  C    0.000000  -0.000000   0.000000   0.000000  -0.000000   0.000000
    13  C   -0.000000  -0.000000  -0.000000   0.000000  -0.000000  -0.000000
    14  C    0.000000   0.000000  -0.000000  -0.000000   0.000000   0.000000
    15  C    0.000000   0.000000  -0.000000   0.000000  -0.000000  -0.000000
    16  C   -0.000000  -0.000000   0.000000  -0.000000  -0.000000   0.000000
    17  C   -0.000000   0.000000  -0.000000  -0.000000   0.000000   0.000000
    18  C    0.000000  -0.000000  -0.000000   0.000000   0.000000  -0.000004
    19  C    0.000000  -0.000000   0.000000   0.000000  -0.000004   0.000258
    20  C   -0.000000   0.000000   0.000000  -0.000004   0.000102  -0.001585
    21  C   -0.000000   0.000000  -0.000003   0.000262  -0.001581  -0.132998
    22  C    0.000016  -0.000005   0.000101  -0.001696   0.024565   0.031548
    23  C   -0.001340   0.000306  -0.001677  -0.132368   0.032470  -0.056190
    24  C    0.019678  -0.002270   0.025697   0.027293  -0.144924   0.032470
    25  C    0.142703  -0.156115   0.045365  -0.039606   0.027293  -0.132368
    26  C    0.230961   0.146855  -0.175867   0.045365   0.025697  -0.001677
    27  H    0.436406  -0.085137   0.015130  -0.001438   0.000044  -0.000001
    28  H   -0.085137   0.436406  -0.076571   0.015778  -0.000492   0.000009
    29  H    0.015493  -0.081038   0.437798  -0.079269  -0.021988   0.000804
    30  H   -0.000030   0.000609  -0.018685  -0.083050   0.439789  -0.082791
    31  H   -0.000000   0.000000  -0.000041   0.000762  -0.019824  -0.083423
    32  H    0.000000   0.000000   0.000000   0.000000  -0.000047   0.000781
    33  H    0.000000   0.000000  -0.000000   0.000000   0.000000   0.000000
    34  H   -0.000000   0.000000  -0.000000   0.000000  -0.000000   0.000000
    35  H    0.000000   0.000000   0.000000   0.000000  -0.000000   0.000000
    36  H    0.000000   0.000000   0.000000  -0.000000   0.000000  -0.000000
    37  H    0.000000  -0.000000  -0.000000   0.000000   0.000000   0.000000
    38  H    0.000000   0.000000   0.000000   0.000000   0.000000  -0.000000
    39  H    0.000000   0.000000   0.000000  -0.000000   0.000001   0.000004
    40  H    0.000000  -0.000000   0.000001  -0.000004  -0.000371   0.017955
    41  H    0.000609  -0.000030  -0.000301   0.017928  -0.002298   0.017976
    42  H   -0.081038   0.015493  -0.002076   0.017518  -0.000328  -0.000010
               7          8          9         10         11         12
     1  C   -0.000005   0.000000   0.000000  -0.000000  -0.000000   0.000000
     2  C    0.000016  -0.000000  -0.000000   0.000000   0.000000  -0.000000
     3  C   -0.000907   0.000011  -0.000000  -0.000000  -0.000000   0.000000
     4  C    0.020378  -0.001490   0.000012   0.000000  -0.000000   0.000000
     5  C   -0.163822   0.020486  -0.000913   0.000011   0.000000  -0.000000
     6  C    0.218186   0.144343   0.020352  -0.001473   0.000011   0.000000
     7  C    5.759194   0.208586  -0.163663   0.020352  -0.000913   0.000012
     8  C    0.208586   5.425689   0.208586   0.144343   0.020486  -0.001490
     9  C   -0.163663   0.208586   5.759194   0.218186  -0.163822   0.020378
    10  C    0.020352   0.144343   0.218186   5.420090   0.203152   0.143392
    11  C   -0.000913   0.020486  -0.163822   0.203152   5.741074   0.235705
    12  C    0.000012  -0.001490   0.020378   0.143392   0.235705   5.431382
    13  C   -0.000000   0.000011  -0.000907   0.019286  -0.159523   0.195630
    14  C   -0.000000  -0.000000   0.000016  -0.001340   0.019678   0.142703
    15  C    0.000000   0.000000  -0.000005   0.000306  -0.002270  -0.156115
    16  C    0.000000  -0.000003   0.000101  -0.001677   0.025697   0.045365
    17  C   -0.000004   0.000262  -0.001696  -0.132368   0.027293  -0.039606
    18  C    0.000102  -0.001581   0.024565   0.032470  -0.144924   0.027293
    19  C   -0.001585  -0.132998   0.031548  -0.056190   0.032470  -0.132368
    20  C    0.024670   0.032395  -0.148960   0.031548   0.024565  -0.001696
    21  C    0.032395  -0.060500   0.032395  -0.132998  -0.001581   0.000262
    22  C   -0.148960   0.032395   0.024670  -0.001585   0.000102  -0.000004
    23  C    0.031548  -0.132998  -0.001585   0.000258  -0.000004   0.000000
    24  C    0.024565  -0.001581   0.000102  -0.000004   0.000000   0.000000
    25  C   -0.001696   0.000262  -0.000004   0.000000   0.000000  -0.000000
    26  C    0.000101  -0.000003   0.000000   0.000000  -0.000000  -0.000000
    27  H    0.000000   0.000000   0.000000  -0.000000   0.000000  -0.000000
    28  H   -0.000000  -0.000000  -0.000000   0.000000  -0.000000   0.000000
    29  H   -0.000048   0.000000   0.000000   0.000000  -0.000000   0.000000
    30  H   -0.020332   0.000796  -0.000047   0.000000   0.000000   0.000000
    31  H    0.440794  -0.083454  -0.020021   0.000781  -0.000047   0.000000
    32  H   -0.020021  -0.083454   0.440794  -0.083423  -0.019824   0.000762
    33  H   -0.000047   0.000796  -0.020332  -0.082791   0.439789  -0.083050
    34  H    0.000000   0.000000  -0.000048   0.000804  -0.021988  -0.079269
    35  H   -0.000000  -0.000000  -0.000000   0.000009  -0.000492   0.015778
    36  H    0.000000   0.000000   0.000000  -0.000001   0.000044  -0.001438
    37  H    0.000000  -0.000000   0.000001  -0.000010  -0.000328   0.017518
    38  H    0.000001   0.000002  -0.000373   0.017976  -0.002298   0.017928
    39  H   -0.000377   0.018000  -0.002259   0.017955  -0.000371  -0.000004
    40  H   -0.002259   0.018000  -0.000377   0.000004   0.000001  -0.000000
    41  H   -0.000373   0.000002   0.000001  -0.000000   0.000000   0.000000
    42  H    0.000001  -0.000000   0.000000   0.000000   0.000000   0.000000
              13         14         15         16         17         18
     1  C   -0.000000   0.000000   0.000000  -0.000000  -0.000000   0.000000
     2  C   -0.000000   0.000000   0.000000  -0.000000   0.000000  -0.000000
     3  C   -0.000000  -0.000000  -0.000000   0.000000  -0.000000  -0.000000
     4  C    0.000000  -0.000000   0.000000  -0.000000  -0.000000   0.000000
     5  C   -0.000000   0.000000  -0.000000  -0.000000   0.000000   0.000000
     6  C   -0.000000   0.000000  -0.000000   0.000000   0.000000  -0.000004
     7  C   -0.000000  -0.000000   0.000000   0.000000  -0.000004   0.000102
     8  C    0.000011  -0.000000   0.000000  -0.000003   0.000262  -0.001581
     9  C   -0.000907   0.000016  -0.000005   0.000101  -0.001696   0.024565
    10  C    0.019286  -0.001340   0.000306  -0.001677  -0.132368   0.032470
    11  C   -0.159523   0.019678  -0.002270   0.025697   0.027293  -0.144924
    12  C    0.195630   0.142703  -0.156115   0.045365  -0.039606   0.027293
    13  C    5.459089   0.230961   0.146855  -0.175867   0.045365   0.025697
    14  C    0.230961   5.245978   0.129806   0.146855  -0.156115  -0.002270
    15  C    0.146855   0.129806   5.245978   0.230961   0.142703   0.019678
    16  C   -0.175867   0.146855   0.230961   5.459089   0.195630  -0.159523
    17  C    0.045365  -0.156115   0.142703   0.195630   5.431382   0.235705
    18  C    0.025697  -0.002270   0.019678  -0.159523   0.235705   5.741074
    19  C   -0.001677   0.000306  -0.001340   0.019286   0.143392   0.203152
    20  C    0.000101  -0.000005   0.000016  -0.000907   0.020378  -0.163822
    21  C   -0.000003   0.000000  -0.000000   0.000011  -0.001490   0.020486
    22  C    0.000000   0.000000  -0.000000  -0.000000   0.000012  -0.000913
    23  C    0.000000  -0.000000   0.000000  -0.000000   0.000000   0.000011
    24  C   -0.000000  -0.000000   0.000000  -0.000000  -0.000000   0.000000
    25  C   -0.000000   0.000000  -0.000000   0.000000   0.000000  -0.000000
    26  C    0.000000  -0.000000  -0.000000  -0.000000   0.000000  -0.000000
    27  H    0.000000   0.000000   0.000000   0.000000   0.000000  -0.000000
    28  H    0.000000   0.000000   0.000000   0.000000  -0.000000   0.000000
    29  H   -0.000000   0.000000  -0.000000  -0.000000   0.000000   0.000000
    30  H   -0.000000   0.000000   0.000000   0.000000   0.000000   0.000000
    31  H    0.000000   0.000000   0.000000   0.000000  -0.000000   0.000001
    32  H   -0.000041   0.000000  -0.000000   0.000001  -0.000004  -0.000371
    33  H   -0.018685   0.000609  -0.000030  -0.000301   0.017928  -0.002298
    34  H    0.437798  -0.081038   0.015493  -0.002076   0.017518  -0.000328
    35  H   -0.076571   0.436406  -0.085137   0.015130  -0.001438   0.000044
    36  H    0.015130  -0.085137   0.436406  -0.076571   0.015778  -0.000492
    37  H   -0.002076   0.015493  -0.081038   0.437798  -0.079269  -0.021988
    38  H   -0.000301  -0.000030   0.000609  -0.018685  -0.083050   0.439789
    39  H    0.000001  -0.000000   0.000000  -0.000041   0.000762  -0.019824
    40  H    0.000000   0.000000   0.000000   0.000000   0.000000  -0.000047
    41  H    0.000000   0.000000   0.000000  -0.000000   0.000000   0.000000
    42  H   -0.000000  -0.000000   0.000000  -0.000000   0.000000  -0.000000
              19         20         21         22         23         24
     1  C    0.000000  -0.000000  -0.000000   0.000016  -0.001340   0.019678
     2  C   -0.000000   0.000000   0.000000  -0.000005   0.000306  -0.002270
     3  C    0.000000   0.000000  -0.000003   0.000101  -0.001677   0.025697
     4  C    0.000000  -0.000004   0.000262  -0.001696  -0.132368   0.027293
     5  C   -0.000004   0.000102  -0.001581   0.024565   0.032470  -0.144924
     6  C    0.000258  -0.001585  -0.132998   0.031548  -0.056190   0.032470
     7  C   -0.001585   0.024670   0.032395  -0.148960   0.031548   0.024565
     8  C   -0.132998   0.032395  -0.060500   0.032395  -0.132998  -0.001581
     9  C    0.031548  -0.148960   0.032395   0.024670  -0.001585   0.000102
    10  C   -0.056190   0.031548  -0.132998  -0.001585   0.000258  -0.000004
    11  C    0.032470   0.024565  -0.001581   0.000102  -0.000004   0.000000
    12  C   -0.132368  -0.001696   0.000262  -0.000004   0.000000   0.000000
    13  C   -0.001677   0.000101  -0.000003   0.000000   0.000000  -0.000000
    14  C    0.000306  -0.000005   0.000000   0.000000  -0.000000  -0.000000
    15  C   -0.001340   0.000016  -0.000000  -0.000000   0.000000   0.000000
    16  C    0.019286  -0.000907   0.000011  -0.000000  -0.000000  -0.000000
    17  C    0.143392   0.020378  -0.001490   0.000012   0.000000  -0.000000
    18  C    0.203152  -0.163822   0.020486  -0.000913   0.000011   0.000000
    19  C    5.420090   0.218186   0.144343   0.020352  -0.001473   0.000011
    20  C    0.218186   5.759194   0.208586  -0.163663   0.020352  -0.000913
    21  C    0.144343   0.208586   5.425689   0.208586   0.144343   0.020486
    22  C    0.020352  -0.163663   0.208586   5.759194   0.218186  -0.163822
    23  C   -0.001473   0.020352   0.144343   0.218186   5.420090   0.203152
    24  C    0.000011  -0.000913   0.020486  -0.163822   0.203152   5.741074
    25  C    0.000000   0.000012  -0.001490   0.020378   0.143392   0.235705
    26  C   -0.000000  -0.000000   0.000011  -0.000907   0.019286  -0.159523
    27  H    0.000000  -0.000000  -0.000000  -0.000000   0.000009  -0.000492
    28  H   -0.000000   0.000000   0.000000   0.000000  -0.000001   0.000044
    29  H    0.000000   0.000000  -0.000000   0.000001  -0.000010  -0.000328
    30  H   -0.000000   0.000001   0.000002  -0.000373   0.017976  -0.002298
    31  H    0.000004  -0.000377   0.018000  -0.002259   0.017955  -0.000371
    32  H    0.017955  -0.002259   0.018000  -0.000377   0.000004   0.000001
    33  H    0.017976  -0.000373   0.000002   0.000001  -0.000000   0.000000
    34  H   -0.000010   0.000001  -0.000000   0.000000   0.000000   0.000000
    35  H   -0.000001   0.000000   0.000000   0.000000  -0.000000   0.000000
    36  H    0.000009  -0.000000  -0.000000  -0.000000   0.000000  -0.000000
    37  H    0.000804  -0.000048   0.000000   0.000000   0.000000  -0.000000
    38  H   -0.082791  -0.020332   0.000796  -0.000047   0.000000   0.000000
    39  H   -0.083423   0.440794  -0.083454  -0.020021   0.000781  -0.000047
    40  H    0.000781  -0.020021  -0.083454   0.440794  -0.083423  -0.019824
    41  H    0.000000  -0.000047   0.000796  -0.020332  -0.082791   0.439789
    42  H    0.000000   0.000000   0.000000  -0.000048   0.000804  -0.021988
              25         26         27         28         29         30
     1  C    0.142703   0.230961   0.436406  -0.085137   0.015493  -0.000030
     2  C   -0.156115   0.146855  -0.085137   0.436406  -0.081038   0.000609
     3  C    0.045365  -0.175867   0.015130  -0.076571   0.437798  -0.018685
     4  C   -0.039606   0.045365  -0.001438   0.015778  -0.079269  -0.083050
     5  C    0.027293   0.025697   0.000044  -0.000492  -0.021988   0.439789
     6  C   -0.132368  -0.001677  -0.000001   0.000009   0.000804  -0.082791
     7  C   -0.001696   0.000101   0.000000  -0.000000  -0.000048  -0.020332
     8  C    0.000262  -0.000003   0.000000  -0.000000   0.000000   0.000796
     9  C   -0.000004   0.000000   0.000000  -0.000000   0.000000  -0.000047
    10  C    0.000000   0.000000  -0.000000   0.000000   0.000000   0.000000
    11  C    0.000000  -0.000000   0.000000  -0.000000  -0.000000   0.000000
    12  C   -0.000000  -0.000000  -0.000000   0.000000   0.000000   0.000000
    13  C   -0.000000   0.000000   0.000000   0.000000  -0.000000  -0.000000
    14  C    0.000000  -0.000000   0.000000   0.000000   0.000000   0.000000
    15  C   -0.000000  -0.000000   0.000000   0.000000  -0.000000   0.000000
    16  C    0.000000  -0.000000   0.000000   0.000000  -0.000000   0.000000
    17  C    0.000000   0.000000   0.000000  -0.000000   0.000000   0.000000
    18  C   -0.000000  -0.000000  -0.000000   0.000000   0.000000   0.000000
    19  C    0.000000  -0.000000   0.000000  -0.000000   0.000000  -0.000000
    20  C    0.000012  -0.000000  -0.000000   0.000000   0.000000   0.000001
    21  C   -0.001490   0.000011  -0.000000   0.000000  -0.000000   0.000002
    22  C    0.020378  -0.000907  -0.000000   0.000000   0.000001  -0.000373
    23  C    0.143392   0.019286   0.000009  -0.000001  -0.000010   0.017976
    24  C    0.235705  -0.159523  -0.000492   0.000044  -0.000328  -0.002298
    25  C    5.431382   0.195630   0.015778  -0.001438   0.017518   0.017928
    26  C    0.195630   5.459089  -0.076571   0.015130  -0.002076  -0.000301
    27  H    0.015778  -0.076571   0.669019  -0.012409  -0.000316  -0.000001
    28  H   -0.001438   0.015130  -0.012409   0.669019  -0.012467  -0.000014
    29  H    0.017518  -0.002076  -0.000316  -0.012467   0.677182   0.007460
    30  H    0.017928  -0.000301  -0.000001  -0.000014   0.007460   0.685251
    31  H   -0.000004   0.000001   0.000000  -0.000000  -0.000000   0.007715
    32  H   -0.000000   0.000000  -0.000000  -0.000000  -0.000000  -0.000001
    33  H    0.000000   0.000000   0.000000  -0.000000   0.000000  -0.000000
    34  H    0.000000  -0.000000   0.000000   0.000000  -0.000000   0.000000
    35  H   -0.000000   0.000000   0.000000   0.000000   0.000000  -0.000000
    36  H    0.000000   0.000000   0.000000   0.000000   0.000000   0.000000
[...]
 185168,0.00308044,0.00003326,-0.00058516,0.00001794,0.00281595,0.00277
 114,0.00353810,-0.00049775,0.00050652,-0.00035334,0.00001637,-0.000217
 57,-0.00004341,0.00017899,-0.00007508,0.00000726,-0.00193328,-0.002569
 06,-0.00187196,-0.00166942,0.01059139,-0.00555443,-0.00679364,0.147560
 41,-0.18543099,0.00097913,0.00655211,-0.00261765,0.00122068,-0.0020188
 1,-0.00117552,-0.00031236,-0.00021335,0.00005588,0.00008359,0.00015382
 ,0.00001030,-0.00004855,0.00000319,0.00000546,0.00002923,0.00001161,-0
 .00003660,-0.00001379,0.00000749,-0.00000856,0.00001117,0.00001103,-0.
 00000800,-0.00000385,-0.00000076,0.00000098,-0.00000268,0.00000071,0.0
 0000026,-0.00000033,0.00000288,-0.00000216,-0.00000088,0.00000439,-0.0
 0000275,0.00001411,0.00001676,0.00000803,-0.00009603,0.00022977,0.0001
 2953,-0.00007717,-0.00050266,-0.00066221,0.00018962,0.00020509,0.00004
 957,0.00002802,0.00000261,0.00004897,0.00006195,0.00017202,0.00014905,
 0.00065231,-0.00022891,0.00034962,0.00657595,-0.16421557,0.19015671,0.
 00002554,0.00000013,-0.00000341,-0.00002350,0.00002194,-0.00002018,-0.
 00000443,-0.00001282,0.00001315,-0.00002216,0.00002582,-0.00002566,-0.
 00005802,-0.00003728,0.00005009,0.00020619,0.00003000,-0.00008486,0.00
 036628,0.00094412,-0.00098691,-0.00451143,0.00097568,0.00012695,-0.000
 67747,-0.00002843,0.00003607,-0.00418137,-0.00018690,0.00133045,0.0004
 1288,-0.00089445,0.00087548,0.00020839,-0.00010973,0.00005749,-0.00005
 771,0.00005764,-0.00004563,-0.00003257,-0.00004650,0.00004854,0.000048
 95,0.00000900,-0.00001516,-0.00005438,0.00000952,0.00002887,0.00017739
 ,0.00030941,-0.00035279,0.00114808,-0.00149549,0.00093567,0.00448137,-
 0.01861472,0.01893603,-0.05801156,0.00908720,-0.00673730,0.00235163,0.
 01961387,-0.01968277,0.00120685,0.00093160,-0.00148507,0.00019004,-0.0
 0036046,0.00032332,-0.00006126,0.00003988,-0.00000784,0.00005408,-0.00
 001772,0.00001214,-0.00001279,-0.00000065,-0.00000143,-0.00000093,-0.0
 0000065,0.00000174,0.00000041,-0.00000103,0.00000113,0.00000026,0.0000
 0039,-0.00000023,0.00001737,-0.00001286,0.00001411,-0.00034526,0.00017
 694,-0.00009842,0.00005483,-0.00006611,-0.00007681,-0.00031407,-0.0001
 0674,0.00018365,0.00001396,0.00001651,-0.00001583,-0.00000168,0.000004
 79,-0.00000481,0.00000303,0.00000165,-0.00000550,-0.00002983,0.0000131
 8,-0.00000987,-0.00043391,0.00056676,-0.00050209,0.05833762,0.00000085
 ,-0.00002760,0.00002446,0.00003958,-0.00000349,-0.00000592,-0.00002070
 ,0.00001683,-0.00001807,0.00006528,-0.00000486,-0.00001979,-0.00002231
 ,0.00006661,-0.00001408,-0.00002349,-0.00004002,-0.00023650,-0.0004151
 6,-0.00034064,0.00051386,0.00234356,0.00320528,0.00195429,-0.00002735,
 -0.00003451,-0.00058525,-0.00155958,0.00361382,0.00251857,0.00044993,-
 0.00030482,0.00038072,-0.00004138,-0.00004406,-0.00022434,0.00002856,0
 .00008104,-0.00002798,-0.00008230,-0.00000719,-0.00000475,-0.00000331,
 -0.00005487,0.00005173,0.00006576,0.00010629,0.00017603,-0.00027251,0.
 00001403,-0.00014965,0.00125303,-0.00168207,-0.00251471,0.00169784,-0.
 00333824,0.00800208,0.00902619,-0.18263063,0.14799152,-0.00068534,-0.0
 0438256,0.00907904,-0.00175484,-0.00144515,-0.00195480,0.00025156,0.00
 004140,-0.00026262,-0.00004896,0.00005534,0.00018093,0.00003049,-0.000
 01566,0.00001474,-0.00002307,-0.00002727,-0.00000150,0.00000572,0.0000
 0527,0.00000281,0.00000276,0.00000089,-0.00000010,0.00000079,-0.000002
 37,0.00000401,-0.00001216,0.00001150,0.00001676,0.00017694,0.00011677,
 0.00024210,-0.00006471,-0.00070022,-0.00052076,-0.00011328,0.00012209,
 0.00024640,0.00001447,0.00000898,0.00001191,-0.00000449,0.00000219,-0.
 00000289,-0.00001133,-0.00001419,-0.00001568,-0.00000730,0.00000969,-0
 .00000764,-0.00055769,0.00036685,-0.00008834,-0.01028202,0.18687372,-0
 .00000413,0.00002454,-0.00002789,-0.00003810,-0.00000393,0.00000337,0.
 00002116,-0.00001897,0.00001361,-0.00006573,-0.00001534,0.00000591,0.0
 0003489,-0.00001239,0.00005892,-0.00003053,-0.00024254,-0.00002565,0.0
 0039379,0.00036038,-0.00029143,-0.00126249,0.00210875,0.00339034,0.000
 03498,-0.00058513,-0.00002332,0.00272477,0.00236358,0.00321144,-0.0004
 9009,0.00053252,-0.00036557,-0.00001193,-0.00021662,-0.00004813,-0.000
 01610,-0.00003126,0.00009024,0.00008490,-0.00000879,-0.00002167,-0.000
 00266,0.00005034,-0.00005514,-0.00002826,0.00018238,0.00010483,0.00023
 830,-0.00021536,0.00002826,-0.00185617,-0.00220436,-0.00156977,-0.0016
 9670,0.01029570,-0.00553800,-0.00667533,0.14798463,-0.18549565,0.00093
 641,0.00678692,-0.00252023,0.00124372,-0.00225815,-0.00141139,-0.00029
 834,-0.00019351,0.00004107,0.00008240,0.00017090,0.00004512,-0.0000368
 2,0.00002018,-0.00001410,0.00002134,-0.00000403,-0.00002962,-0.0000047
 2,0.00000353,0.00000562,-0.00000272,0.00000033,0.00000107,-0.00000064,
 0.00000406,-0.00000238,0.00001340,0.00001684,0.00000803,-0.00009842,0.
 00024210,0.00013998,-0.00007823,-0.00052060,-0.00068245,0.00019028,0.0
 0024567,0.00008105,-0.00001376,0.00001168,0.00001200,0.00000462,-0.000
 00394,0.00000232,0.00000768,-0.00001715,-0.00001434,0.00001094,-0.0000
 0995,0.00001024,0.00064008,-0.00021531,0.00036431,0.00653850,-0.164534
 54,0.19013905,0.00004928,-0.00000628,0.00000033,-0.00004717,0.00004641
 ,-0.00004418,-0.00004829,-0.00005449,0.00006720,0.00019712,0.00005785,
 -0.00011146,0.00035848,0.00092923,-0.00097081,-0.00447575,0.00103422,0
 .00012332,-0.00067675,-0.00003376,0.00004141,-0.00422431,-0.00018619,0
 .00127472,0.00042233,-0.00090902,0.00088911,0.00021308,-0.00008424,0.0
 0003040,-0.00006531,0.00004193,-0.00002954,-0.00001163,-0.00002752,0.0
 0002734,-0.00000800,0.00001080,-0.00001044,-0.00001657,-0.00002144,0.0
 0002310,0.00002552,0.00000098,-0.00000426,-0.00001533,-0.00000071,-0.0
 0000109,0.00005564,0.00001674,-0.00002303,-0.00006640,-0.00000370,0.00
 003700,0.00018303,0.00031332,-0.00036029,0.00117100,-0.00143892,0.0009
 2686,0.00438520,-0.01860276,0.01890662,-0.05798644,0.00880486,-0.00645
 335,0.00244284,0.01965900,-0.01971080,0.00118392,0.00093727,-0.0015394
 8,0.00018611,-0.00034927,0.00031528,-0.00005032,0.00002997,0.00000763,
 0.00000236,-0.00000542,0.00000175,-0.00000160,-0.00000515,0.00000528,0
 .00001727,-0.00001472,0.00001552,-0.00034647,0.00017220,-0.00009603,0.
 00005483,-0.00006471,-0.00007823,-0.00031281,-0.00010892,0.00018828,0.
 00001426,0.00001527,-0.00001412,0.00000033,0.00000015,0.,0.00000060,0.
 00000109,-0.00000105,-0.00000045,0.00000155,-0.00000054,-0.00000315,0.
 00000204,-0.00000129,-0.00002993,0.00001157,-0.00000837,-0.00043812,0.
 00056973,-0.00050397,0.05832601,0.00000603,-0.00005470,0.00005051,0.00
 008220,-0.00001444,-0.00001596,-0.00002542,0.00008572,-0.00002664,-0.0
 0001050,-0.00004965,-0.00022215,-0.00041515,-0.00033182,0.00050583,0.0
 0240691,0.00346771,0.00221910,-0.00003483,-0.00003415,-0.00058477,-0.0
 0155406,0.00334778,0.00224965,0.00045026,-0.00031282,0.00038788,-0.000
 03075,-0.00003659,-0.00023915,0.00002697,0.00006299,-0.00001597,-0.000
 06697,0.00000037,-0.00001017,0.00001869,0.00001506,-0.00002072,-0.0000
 3908,-0.00000005,-0.00000053,0.00000027,-0.00002761,0.00002453,0.00002
 171,-0.00002853,-0.00000528,-0.00003147,-0.00001488,0.00002095,0.00008
 515,0.00005279,0.00016837,-0.00029869,0.00003792,-0.00019695,0.0012475
 2,-0.00146294,-0.00227574,0.00169645,-0.00337328,0.00778491,0.00886588
 ,-0.18261816,0.14799696,-0.00065355,-0.00434999,0.00929529,-0.00181125
 ,-0.00166429,-0.00218677,0.00023265,0.00001836,-0.00021108,-0.00002626
 ,0.00010831,0.00018437,0.00000756,-0.00001453,-0.00001748,0.00000414,0
 .00000223,-0.00000390,-0.00001267,0.00001062,0.00001331,0.00017873,0.0
 0010600,0.00022977,-0.00006611,-0.00070022,-0.00052060,-0.00010892,0.0
 0013288,0.00025802,0.00001458,0.00000995,0.00001531,-0.00000026,-0.000
 00233,0.00000409,-0.00000270,0.00000098,0.00000042,-0.00000481,0.00000
 550,0.00000376,0.00000018,0.00000502,-0.00000126,-0.00000941,0.0000077
 1,-0.00000677,-0.00054891,0.00036891,-0.00008536,-0.01017970,0.1868679
 6,-0.00001217,0.00005190,-0.00005565,-0.00008054,-0.00001192,0.0000001
 9,0.00003767,-0.00002335,0.00007614,-0.00004203,-0.00022986,-0.0000312
 8,0.00039476,0.00035403,-0.00028417,-0.00127100,0.00237410,0.00365193,
 0.00004250,-0.00058489,-0.00002440,0.00266415,0.00209520,0.00296072,-0
 .00049159,0.00054137,-0.00037530,-0.00002392,-0.00023311,-0.00003596,-
 0.00001434,-0.00001765,0.00006983,0.00006741,-0.00001462,-0.00000985,-
 0.00001845,-0.00001983,0.00001896,0.00004102,-0.00000252,-0.00000699,-
 0.00000354,0.00002445,-0.00002787,-0.00002385,-0.00000274,-0.00002583,
 0.00002593,0.00001550,-0.00001643,-0.00005325,0.00017841,0.00005281,0.
 00026137,-0.00026606,0.00005156,-0.00180192,-0.00197240,-0.00135774,-0
 .00171255,0.01007703,-0.00556308,-0.00651533,0.14800385,-0.18553324,0.
 00092193,0.00700166,-0.00248772,0.00125237,-0.00249712,-0.00162340,-0.
 00027581,-0.00014538,0.00001522,0.00006475,0.00017802,0.00009876,-0.00
 001144,-0.00001601,-0.00001334,-0.00000415,-0.00000285,0.00000221,0.00
 001344,0.00001354,0.00000705,-0.00010267,0.00023050,0.00012953,-0.0000
 7681,-0.00052076,-0.00068245,0.00018828,0.00025802,0.00009144,-0.00001
 341,0.00001523,0.00001269,0.00000041,0.00000405,-0.00000249,0.00000280
 ,0.,0.00000079,0.00000592,0.00000305,0.00000491,0.00000060,-0.00000147
 ,0.00000523,0.00001294,-0.00000914,0.00000782,0.00063231,-0.00021167,0
 .00036746,0.00643588,-0.16454024,0.19015643,0.00017826,-0.00031679,0.0
 0029615,0.00013294,0.00009683,-0.00014302,0.00036627,0.00090217,-0.000
 94590,-0.00445526,0.00112885,0.00010968,-0.00067436,-0.00003707,0.0000
 4913,-0.00428401,-0.00020211,0.00123314,0.00044134,-0.00092176,0.00090
 074,0.00020901,-0.00006708,0.00001539,-0.00006070,0.00003254,-0.000021
 37,-0.00001129,-0.00001196,0.00001166,-0.00001015,0.00000304,-0.000002
 18,-0.00000918,-0.00001089,0.00001176,-0.00000156,0.00000310,-0.000003
 07,-0.00000820,-0.00000930,0.00001037,0.00001213,-0.00000092,-0.000000
 57,-0.00000839,0.00000147,-0.00000005,0.00002516,0.00000544,-0.0000086
 5,-0.00001615,-0.00000772,0.00000723,0.00005402,0.00002188,-0.00002796
 ,-0.00006664,-0.00001463,0.00004226,0.00017507,0.00031216,-0.00035899,
 0.00123186,-0.00138239,0.00091636,0.00427075,-0.01858451,0.01886362,-0
 .05796335,0.00854429,-0.00623414,0.00252707,0.01969673,-0.01972623,0.0
 0113587,0.00094556,-0.00161941,0.00001196,0.00001046,0.00002538,-0.000
 02039,-0.00003972,0.00004884,-0.00035485,0.00016581,-0.00009681,0.0000
 4814,-0.00006072,-0.00007717,-0.00031407,-0.00011328,0.00019028,0.0000
 1426,0.00001458,-0.00001341,0.00000035,-0.00000045,0.00000060,-0.00000
 057,-0.00000025,0.00000040,0.00000054,0.00000040,-0.00000039,-0.000000
 50,0.00000028,-0.00000026,0.00000004,0.00000018,-0.00000003,-0.0000033
 0,0.00000116,-0.00000037,-0.00002978,0.00001022,-0.00000701,-0.0004351
 4,0.00057757,-0.00051293,0.05829626,0.00018258,-0.00000158,-0.00006858
 ,0.00001367,-0.00004117,-0.00022642,-0.00042446,-0.00032202,0.00048163
 ,0.00250338,0.00381243,0.00262085,-0.00003870,0.00000683,-0.00058428,-
 0.00155598,0.00303212,0.00199034,0.00045070,-0.00029904,0.00038134,-0.
 00001603,-0.00003125,-0.00022870,0.00002946,0.00005656,-0.00001735,-0.
 00006107,0.00000689,-0.00001592,0.00001804,0.00000996,-0.00001430,-0.0
 0002986,0.00000179,-0.00000152,0.00000999,0.00001040,-0.00001255,-0.00
 002048,0.00000201,0.00000021,-0.00000330,-0.00001222,0.00001161,0.0000
 1168,-0.00000708,0.00001041,-0.00001137,-0.00000890,0.00000777,0.00003
 076,-0.00003516,0.00001039,-0.00004523,0.00000398,0.00000433,0.0000872
 7,0.00001710,0.00015152,-0.00031498,0.00005149,-0.00021594,0.00122856,
 -0.00122077,-0.00203571,0.00172451,-0.00347165,0.00754533,0.00872227,-
 0.18258262,0.14759149,-0.00060415,-0.00435725,0.00958860,-0.00189423,-
 0.00197721,-0.00255163,0.00006353,0.00015637,0.00016999,0.00002406,0.0
 0004840,0.00000377,0.00017706,0.00007338,0.00018918,-0.00006554,-0.000
 67936,-0.00050266,-0.00010674,0.00012209,0.00024567,0.00001527,0.00000
 995,0.00001523,-0.00000045,-0.00000274,0.00000448,-0.00000007,-0.00000
 214,0.00000292,-0.00000260,0.00000015,0.00000084,-0.00000394,0.0000007
 6,-0.00000057,0.00000057,0.00000309,-0.00000173,-0.00000088,0.00000483
 ,-0.00000095,-0.00001077,0.00000779,-0.00000669,-0.00054688,0.00036624
 ,-0.00008894,-0.01012713,0.18689663,-0.00021110,-0.00001219,-0.0000125
 8,-0.00005854,-0.00023581,-0.00001642,0.00040164,0.00033183,-0.0002774
 6,-0.00128651,0.00277605,0.00399635,0.00005079,-0.00058446,0.00001525,
 0.00260835,0.00183747,0.00265765,-0.00049336,0.00053631,-0.00036257,-0
 .00003647,-0.00022294,-0.00002761,-0.00001824,-0.00001770,0.00006279,0
 .00006155,-0.00002147,-0.00000072,-0.00001742,-0.00001260,0.00001266,0
 .00003102,-0.00000366,-0.00000281,-0.00001006,-0.00001178,0.00001225,0
 .00002173,-0.00000105,-0.00000144,0.00000185,0.00001134,-0.00001289,-0
 .00001041,0.00001156,-0.00000610,0.00000842,0.00000587,-0.00000943,-0.
 00003185,0.00001473,-0.00003288,0.00004020,-0.00000325,0.00000197,-0.0
 0006125,0.00016303,0.00001729,0.00027803,-0.00028675,0.00006377,-0.001
 73575,-0.00174089,-0.00112399,-0.00176551,0.00983855,-0.00564598,-0.00
 641493,0.14761158,-0.18552573,0.00089465,0.00729629,-0.00249692,0.0012
 6514,-0.00287229,-0.00192511,-0.00002853,0.00017598,0.00015525,-0.0000
 1595,0.00001097,0.00004544,-0.00010824,0.00019045,0.00009807,-0.000072
 27,-0.00050320,-0.00066221,0.00018365,0.00024640,0.00008105,-0.0000141
 2,0.00001531,0.00001269,0.00000060,0.00000448,-0.00000300,0.00000022,0
 .00000294,-0.00000228,0.00000266,0.00000050,-0.00000013,0.00000403,-0.
 00000104,0.00000037,-0.00000042,-0.00000168,0.00000321,0.00000169,-0.0
 0000118,0.00000480,0.00001430,-0.00000906,0.00000759,0.00062924,-0.000
 21591,0.00036614,0.00642490,-0.16422396,0.19018229,0.00312930,0.020718
 98,-0.02080382,-0.00435800,0.00153691,-0.00008305,-0.00066648,-0.00000
 565,0.00001793,-0.00439972,-0.00028375,0.00124130,0.00046785,-0.000949
 71,0.00092687,0.00020420,-0.00005068,0.00000463,-0.00005047,0.00002374
 ,-0.00001502,-0.00001183,-0.00000146,0.00000147,-0.00000587,-0.0000032
 0,0.00000376,-0.00000833,-0.00000190,0.00000262,-0.00000151,-0.0000026
 6,0.00000276,-0.00000439,-0.00000292,0.00000352,-0.00000033,-0.0000005
 7,0.00000057,-0.00000222,-0.00000360,0.00000384,0.00000626,-0.00000087
 ,0.00000010,-0.00000365,0.00000225,-0.00000201,0.00001027,0.00000035,-
 0.00000153,-0.00000707,0.00000007,0.00000093,0.00002104,0.00000636,-0.
 00000911,-0.00001312,-0.00000719,0.00000743,0.00004399,0.00001817,-0.0
 0002309,-0.00005777,-0.00001478,0.00003426,0.00015321,0.00029727,-0.00
 034049,0.00134559,-0.00126841,0.00086827,0.00410107,-0.01852977,0.0187
 7102,-0.05799358,0.00823848,-0.00604528,0.00117781,-0.00068439,-0.0000
 8786,0.00000561,0.00093477,-0.00092986,0.00010787,-0.00006178,-0.00008
 600,-0.00032244,-0.00011979,0.00018962,0.00001396,0.00001447,-0.000013
 76,0.00000033,-0.00000026,0.00000041,-0.00000057,-0.00000007,0.0000002
 2,-0.00000047,0.00000025,-0.00000014,0.00000087,0.00000032,-0.00000037
 ,0.00000050,-0.00000005,0.00000006,0.00000006,-0.00000051,0.00000060,0
 .00000014,-0.00000068,0.00000084,-0.00000293,0.00000006,0.00000070,-0.
 00002925,0.00000808,-0.00000475,-0.00040348,0.00059148,-0.00053371,0.0
 5755356,-0.00144924,-0.00371960,0.00929511,0.00280810,0.00473277,0.003
 74522,-0.00014929,0.00008473,-0.00063647,-0.00155722,0.00256725,0.0016
 7258,0.00044640,-0.00026683,0.00035575,0.00000667,-0.00002208,-0.00019
 233,0.00002847,0.00005847,-0.00003202,-0.00005263,0.00000499,-0.000011
 19,0.00001892,0.00001062,-0.00001425,-0.00002560,0.00000370,-0.0000031
 5,0.00000875,0.00000867,-0.00001075,-0.00001338,0.00000069,0.00000130,
 0.00000527,0.00000800,-0.00000915,-0.00001168,0.00000130,-0.00000058,-
 0.00000501,-0.00000520,0.00000518,0.00000600,-0.00000862,0.00000687,-0
 .00000654,-0.00000145,0.00000211,0.00001381,-0.00001364,0.00001409,-0.
 00001801,-0.00000029,-0.00000011,0.00003187,-0.00003381,0.00001858,-0.
 00005294,0.00001294,-0.00000410,0.00008251,-0.00001305,0.00011839,-0.0
 0032149,0.00006074,-0.00021646,0.00118203,-0.00084805,-0.00168463,0.00
 190799,-0.00363023,0.00718051,0.00862458,-0.18430408,0.14822507,-0.000
 26441,-0.00243133,-0.00334804,-0.00009480,-0.00023967,0.00043651,-0.00
 007411,-0.00066604,-0.00054368,-0.00010854,0.00008947,0.00020509,0.000
 01651,0.00000898,0.00001168,0.00000015,-0.00000233,0.00000405,-0.00000
 025,-0.00000214,0.00000294,0.00000025,-0.00000171,0.00000224,-0.000002
 48,-0.00000018,0.00000089,-0.00000313,0.00000102,-0.00000007,0.0000003
 6,0.00000245,-0.00000175,-0.00000029,0.00000314,-0.00000168,-0.0000018
 0,0.00000513,-0.00000115,-0.00001241,0.00000998,-0.00000735,-0.0005660
 2,0.00035093,-0.00009878,-0.01039738,0.18818434,0.00171382,0.00679195,
 -0.00182235,-0.00137428,0.00388876,0.00493716,0.00016384,-0.00065269,0
 .00008602,0.00253484,0.00152878,0.00220166,-0.00049125,0.00051339,-0.0
 0033299,-0.00005362,-0.00018585,-0.00001584,-0.00001982,-0.00003149,0.
 00006433,0.00005346,-0.00001697,-0.00000068,-0.00001870,-0.00001175,0.
 00001274,0.00002669,-0.00000582,0.00000066,-0.00000883,-0.00000946,0.0
 0000967,0.00001415,0.00000012,-0.00000123,-0.00000537,-0.00000849,0.00
 000881,0.00001205,-0.00000150,-0.00000042,0.00000431,0.00000471,-0.000
 00593,-0.00000582,0.00000729,-0.00000794,0.00000547,0.00000133,-0.0000
 0207,-0.00001303,0.00001564,-0.00001265,0.00001564,-0.00000286,-0.0000
 0126,-0.00003224,0.00002299,-0.00003169,0.00004915,-0.00001213,0.00000
 979,-0.00006457,0.00012938,-0.00001145,0.00028802,-0.00028633,0.000070
 22,-0.00162080,-0.00140794,-0.00076200,-0.00198889,0.00948827,-0.00576
 229,-0.00643747,0.14826867,-0.18729920,-0.00051446,-0.00330061,-0.0023
 4608,0.00011593,0.00032026,-0.00015886,-0.00007347,-0.00054507,-0.0006
 4756,0.00017819,0.00020636,0.00004957,-0.00001583,0.00001191,0.0000120
 0,0.,0.00000409,-0.00000249,0.00000040,0.00000292,-0.00000228,-0.00000
 014,0.00000224,-0.00000173,0.00000247,0.00000058,-0.00000044,0.0000031
 9,-0.00000042,0.00000067,-0.00000029,-0.00000165,0.00000248,0.00000045
 ,-0.00000163,0.00000306,0.00000259,-0.00000136,0.00000489,0.00001606,-
 0.00000967,0.00000937,0.00064204,-0.00022948,0.00035136,0.00689610,-0.
 16448648,0.19139496\\0.00003184,-0.00001599,0.00001264,0.00003012,0.00
 001424,-0.00001786,-0.00000731,0.00003943,-0.00003923,0.00001630,-0.00
 013769,0.00013802,-0.00003769,0.00010144,-0.00009878,0.00003380,-0.000
 21078,0.00021029,-0.00003051,0.00013093,-0.00012955,0.00001384,-0.0002
 4352,0.00024579,0.00001570,0.00012963,-0.00013345,-0.00000991,-0.00020
 955,0.00021397,0.00002626,0.00009964,-0.00010417,-0.00000068,-0.000137
 22,0.00013945,0.00000284,0.00003915,-0.00004008,-0.00003184,0.00001599
 ,-0.00001264,-0.00003012,-0.00001424,0.00001786,0.00000731,-0.00003943
 ,0.00003923,-0.00001630,0.00013769,-0.00013802,0.00003769,-0.00010144,
 0.00009878,-0.00003380,0.00021078,-0.00021029,0.00003051,-0.00013093,0
 .00012955,-0.00001384,0.00024352,-0.00024579,-0.00001570,-0.00012963,0
 .00013345,0.00000991,0.00020955,-0.00021397,-0.00002626,-0.00009964,0.
 00010417,0.00000068,0.00013722,-0.00013945,-0.00000284,-0.00003915,0.0
 0004008,-0.00002408,0.00000348,-0.00000081,-0.00002376,-0.00000213,0.0
 0000484,-0.00001057,-0.00000109,0.00000230,0.00000983,-0.00001376,0.00
 001287,0.00000813,-0.00001336,0.00001265,-0.00000664,-0.00001294,0.000
 01390,-0.00000830,-0.00001325,0.00001440,0.00001073,-0.00000169,0.0000
 0051,0.00002408,-0.00000348,0.00000081,0.00002376,0.00000213,-0.000004
 84,0.00001057,0.00000109,-0.00000230,-0.00000983,0.00001376,-0.0000128
 7,-0.00000813,0.00001336,-0.00001265,0.00000664,0.00001294,-0.00001390
 ,0.00000830,0.00001325,-0.00001440,-0.00001073,0.00000169,-0.00000051\
 \\@
 The archive entry for this job was punched.


 CURIOUSER AND CURIOUSER

                  -- ALICE, IN WONDERLAND
 Job cpu time:       0 days  0 hours 31 minutes 15.8 seconds.
 Elapsed time:       0 days  0 hours  3 minutes 54.5 seconds.
 File lengths (MBytes):  RWF=    319 Int=      0 D2E=      0 Chk=     15 Scr=      1
 Normal termination of Gaussian 16 at Tue Oct  8 23:31:27 2024.
