 Entering Gaussian System, Link 0=g16
 Initial command:
 /opt/g16/l1.exe "/tmp/Gau-240861.inp" -scrdir="/tmp/"
 Entering Link 1 = /opt/g16/l1.exe PID=    240862.
  
 Copyright (c) 1988-2019, Gaussian, Inc.  All Rights Reserved.
  
 This is part of the Gaussian(R) 16 program.  It is based on
 the Gaussian(R) 09 system (copyright 2009, Gaussian, Inc.),
 the Gaussian(R) 03 system (copyright 2003, Gaussian, Inc.),
 the Gaussian(R) 98 system (copyright 1998, Gaussian, Inc.),
 the Gaussian(R) 94 system (copyright 1995, Gaussian, Inc.),
 the Gaussian 92(TM) system (copyright 1992, Gaussian, Inc.),
 the Gaussian 90(TM) system (copyright 1990, Gaussian, Inc.),
 the Gaussian 88(TM) system (copyright 1988, Gaussian, Inc.),
 the Gaussian 86(TM) system (copyright 1986, Carnegie Mellon
 University), and the Gaussian 82(TM) system (copyright 1983,
 Carnegie Mellon University). Gaussian is a federally registered
 trademark of Gaussian, Inc.
  
 This software contains proprietary and confidential information,
 including trade secrets, belonging to Gaussian, Inc.
  
 This software is provided under written license and may be
 used, copied, transmitted, or stored only in accord with that
 written license.
  
 The following legend is applicable only to US Government
 contracts under FAR:
  
                    RESTRICTED RIGHTS LEGEND
  
 Use, reproduction and disclosure by the US Government is
 subject to restrictions as set forth in subparagraphs (a)
 and (c) of the Commercial Computer Software - Restricted
 Rights clause in FAR 52.227-19.
  
 Gaussian, Inc.
 340 Quinnipiac St., Bldg. 40, Wallingford CT 06492
  
  
 ---------------------------------------------------------------
 Warning -- This program may not be used in any manner that
 competes with the business of Gaussian, Inc. or will provide
 assistance to any competitor of Gaussian, Inc.  The licensee
 of this program is prohibited from giving any competitor of
 Gaussian, Inc. access to this program.  By using this program,
 the user acknowledges that Gaussian, Inc. is engaged in the
 business of creating and licensing software in the field of
 computational chemistry and represents and warrants to the
 licensee that it is not a competitor of Gaussian, Inc. and that
 it will not use this program in any manner prohibited above.
 ---------------------------------------------------------------
  

 Cite this work as:
 Gaussian 16, Revision C.01,
 M. J. Frisch, G. W. Trucks, H. B. Schlegel, G. E. Scuseria, 
 M. A. Robb, J. R. Cheeseman, G. Scalmani, V. Barone, 
 G. A. Petersson, H. Nakatsuji, X. Li, M. Caricato, A. V. Marenich, 
 J. Bloino, B. G. Janesko, R. Gomperts, B. Mennucci, H. P. Hratchian, 
 J. V. Ortiz, A. F. Izmaylov, J. L. Sonnenberg, D. Williams-Young, 
 F. Ding, F. Lipparini, F. Egidi, J. Goings, B. Peng, A. Petrone, 
 T. Henderson, D. Ranasinghe, V. G. Zakrzewski, J. Gao, N. Rega, 
 G. Zheng, W. Liang, M. Hada, M. Ehara, K. Toyota, R. Fukuda, 
 J. Hasegawa, M. Ishida, T. Nakajima, Y. Honda, O. Kitao, H. Nakai, 
 T. Vreven, K. Throssell, J. A. Montgomery, Jr., J. E. Peralta, 
 F. Ogliaro, M. J. Bearpark, J. J. Heyd, E. N. Brothers, K. N. Kudin, 
 V. N. Staroverov, T. A. Keith, R. Kobayashi, J. Normand, 
 K. Raghavachari, A. P. Rendell, J. C. Burant, S. S. Iyengar, 
 J. Tomasi, M. Cossi, J. M. Millam, M. Klene, C. Adamo, R. Cammi, 
 J. W. Ochterski, R. L. Martin, K. Morokuma, O. Farkas, 
 J. B. Foresman, and D. J. Fox, Gaussian, Inc., Wallingford CT, 2019.
 
 ******************************************
 Gaussian 16:  ES64L-G16RevC.01  3-Jul-2019
                31-Jul-2025 
 ******************************************
 %nprocshared=16
 Will use up to   16 processors via shared memory.
 %mem=17600MB
 ----------------------------------------------------------------------
 #N opt freq B3LYP/def2SVPP symm=veryloose em=gd3bj scale=0.961 press=0
 .987
 ----------------------------------------------------------------------
 1/18=20,19=15,26=3,38=1,113=-987000,114=961000/1,3;
 2/9=110,12=2,17=2,18=2,40=1/2;
 3/5=43,7=202,11=2,25=1,30=1,71=1,74=-5,124=41/1,2,3;
 4//1;
 5/5=2,38=5/2;
 6/7=2,8=2,9=2,10=2,28=1/1;
 7//1,2,3,16;
 1/18=20,19=15,26=3/3(2);
 2/9=110/2;
 99//99;
 2/9=110/2;
 3/5=43,7=202,11=2,25=1,30=1,71=1,74=-5,124=41/1,2,3;
 4/5=5,16=3,69=1/1;
 5/5=2,38=5/2;
 7//1,2,3,16;
 1/18=20,19=15,26=3/3(-5);
 2/9=110/2;
 6/7=2,8=2,9=2,10=2,19=2,28=1/1;
 99/9=1/99;
 ----------------------------------
 c1ccc2cc3c4ccccc4c4ccccc4c3cc2c1_1
 ----------------------------------
 Symbolic Z-matrix:
 Charge =  0 Multiplicity = 1
 C                     0.       -0.70048  -5.07186 
 C                     0.        0.70048  -5.07186 
 C                     0.        1.4023   -3.85764 
 C                     0.        0.7003   -2.64323 
 C                     0.        1.4018   -1.42961 
 C                     0.        0.70024  -0.21737 
 C                     0.        1.39926   0.99784 
 C                     0.        2.7988    1.0089 
 C                     0.        3.49088   2.22883 
 C                     0.        2.81153   3.40625 
 C                     0.        1.40858   3.41555 
 C                     0.        0.69961   2.20835 
 C                     0.       -0.69961   2.20835 
 C                     0.       -1.40858   3.41555 
 C                     0.       -2.81153   3.40625 
 C                     0.       -3.49088   2.22883 
 C                     0.       -2.7988    1.0089 
 C                     0.       -1.39926   0.99784 
 C                     0.       -0.70024  -0.21737 
 C                     0.       -1.4018   -1.42961 
 C                     0.       -0.7003   -2.64323 
 C                     0.       -1.4023   -3.85764 
 H                     0.       -1.236    -5.99813 
 H                     0.        1.236    -5.99813 
 H                     0.        2.47096  -3.85742 
 H                     0.        2.47172  -1.43006 
 H                     0.        3.34091   0.08705 
 H                     0.        4.56158   2.23413 
 H                     0.        3.34917   4.33108 
 H                     0.        0.8795    4.34597 
 H                     0.       -0.8795    4.34597 
 H                     0.       -3.34917   4.33108 
 H                     0.       -4.56158   2.23413 
 H                     0.       -3.34091   0.08705 
 H                     0.       -2.47172  -1.43006 
 H                     0.       -2.47096  -3.85742 
 

 GradGradGradGradGradGradGradGradGradGradGradGradGradGradGradGradGradGrad
 Berny optimization.
 Initialization pass.
                           ----------------------------
                           !    Initial Parameters    !
                           ! (Angstroms and Degrees)  !
 --------------------------                            --------------------------
 ! Name  Definition              Value          Derivative Info.                !
 --------------------------------------------------------------------------------
 ! R1    R(1,2)                  1.401          estimate D2E/DX2                !
 ! R2    R(1,22)                 1.4025         estimate D2E/DX2                !
 ! R3    R(1,23)                 1.0699         estimate D2E/DX2                !
 ! R4    R(2,3)                  1.4025         estimate D2E/DX2                !
 ! R5    R(2,24)                 1.0699         estimate D2E/DX2                !
 ! R6    R(3,4)                  1.4027         estimate D2E/DX2                !
 ! R7    R(3,25)                 1.0687         estimate D2E/DX2                !
 ! R8    R(4,5)                  1.4018         estimate D2E/DX2                !
 ! R9    R(4,21)                 1.4006         estimate D2E/DX2                !
 ! R10   R(5,6)                  1.4006         estimate D2E/DX2                !
 ! R11   R(5,26)                 1.0699         estimate D2E/DX2                !
 ! R12   R(6,7)                  1.4019         estimate D2E/DX2                !
 ! R13   R(6,19)                 1.4005         estimate D2E/DX2                !
 ! R14   R(7,8)                  1.3996         estimate D2E/DX2                !
 ! R15   R(7,12)                 1.3982         estimate D2E/DX2                !
 ! R16   R(8,9)                  1.4026         estimate D2E/DX2                !
 ! R17   R(8,27)                 1.0694         estimate D2E/DX2                !
 ! R18   R(9,10)                 1.3593         estimate D2E/DX2                !
 ! R19   R(9,28)                 1.0707         estimate D2E/DX2                !
 ! R20   R(10,11)                1.403          estimate D2E/DX2                !
 ! R21   R(10,29)                1.0698         estimate D2E/DX2                !
 ! R22   R(11,12)                1.4            estimate D2E/DX2                !
 ! R23   R(11,30)                1.0703         estimate D2E/DX2                !
 ! R24   R(12,13)                1.3992         estimate D2E/DX2                !
 ! R25   R(13,14)                1.4            estimate D2E/DX2                !
 ! R26   R(13,18)                1.3982         estimate D2E/DX2                !
 ! R27   R(14,15)                1.403          estimate D2E/DX2                !
 ! R28   R(14,31)                1.0703         estimate D2E/DX2                !
 ! R29   R(15,16)                1.3593         estimate D2E/DX2                !
 ! R30   R(15,32)                1.0698         estimate D2E/DX2                !
 ! R31   R(16,17)                1.4026         estimate D2E/DX2                !
 ! R32   R(16,33)                1.0707         estimate D2E/DX2                !
 ! R33   R(17,18)                1.3996         estimate D2E/DX2                !
 ! R34   R(17,34)                1.0694         estimate D2E/DX2                !
 ! R35   R(18,19)                1.4019         estimate D2E/DX2                !
 ! R36   R(19,20)                1.4006         estimate D2E/DX2                !
 ! R37   R(20,21)                1.4018         estimate D2E/DX2                !
 ! R38   R(20,35)                1.0699         estimate D2E/DX2                !
 ! R39   R(21,22)                1.4027         estimate D2E/DX2                !
 ! R40   R(22,36)                1.0687         estimate D2E/DX2                !
 ! A1    A(2,1,22)             120.0277         estimate D2E/DX2                !
 ! A2    A(2,1,23)             120.0343         estimate D2E/DX2                !
 ! A3    A(22,1,23)            119.9379         estimate D2E/DX2                !
 ! A4    A(1,2,3)              120.0277         estimate D2E/DX2                !
 ! A5    A(1,2,24)             120.0343         estimate D2E/DX2                !
 ! A6    A(3,2,24)             119.9379         estimate D2E/DX2                !
 ! A7    A(2,3,4)              119.9419         estimate D2E/DX2                !
 ! A8    A(2,3,25)             120.0396         estimate D2E/DX2                !
 ! A9    A(4,3,25)             120.0185         estimate D2E/DX2                !
 ! A10   A(3,4,5)              119.9408         estimate D2E/DX2                !
 ! A11   A(3,4,21)             120.0304         estimate D2E/DX2                !
 ! A12   A(5,4,21)             120.0289         estimate D2E/DX2                !
 ! A13   A(4,5,6)              119.9122         estimate D2E/DX2                !
 ! A14   A(4,5,26)             120.0052         estimate D2E/DX2                !
 ! A15   A(6,5,26)             120.0827         estimate D2E/DX2                !
 ! A16   A(5,6,7)              120.0326         estimate D2E/DX2                !
 ! A17   A(5,6,19)             120.059          estimate D2E/DX2                !
 ! A18   A(7,6,19)             119.9085         estimate D2E/DX2                !
 ! A19   A(6,7,8)              120.3612         estimate D2E/DX2                !
 ! A20   A(6,7,12)             120.0647         estimate D2E/DX2                !
 ! A21   A(8,7,12)             119.574          estimate D2E/DX2                !
 ! A22   A(7,8,9)              120.0196         estimate D2E/DX2                !
 ! A23   A(7,8,27)             120.0056         estimate D2E/DX2                !
 ! A24   A(9,8,27)             119.9748         estimate D2E/DX2                !
 ! A25   A(8,9,10)             120.449          estimate D2E/DX2                !
 ! A26   A(8,9,28)             119.8506         estimate D2E/DX2                !
 ! A27   A(10,9,28)            119.7004         estimate D2E/DX2                !
 ! A28   A(9,10,11)            120.3641         estimate D2E/DX2                !
 ! A29   A(9,10,29)            119.8447         estimate D2E/DX2                !
 ! A30   A(11,10,29)           119.7912         estimate D2E/DX2                !
 ! A31   A(10,11,12)           120.0452         estimate D2E/DX2                !
 ! A32   A(10,11,30)           120.0044         estimate D2E/DX2                !
 ! A33   A(12,11,30)           119.9505         estimate D2E/DX2                !
 ! A34   A(7,12,11)            119.5482         estimate D2E/DX2                !
 ! A35   A(7,12,13)            120.0268         estimate D2E/DX2                !
 ! A36   A(11,12,13)           120.425          estimate D2E/DX2                !
 ! A37   A(12,13,14)           120.425          estimate D2E/DX2                !
 ! A38   A(12,13,18)           120.0268         estimate D2E/DX2                !
 ! A39   A(14,13,18)           119.5482         estimate D2E/DX2                !
 ! A40   A(13,14,15)           120.0452         estimate D2E/DX2                !
 ! A41   A(13,14,31)           119.9505         estimate D2E/DX2                !
 ! A42   A(15,14,31)           120.0044         estimate D2E/DX2                !
 ! A43   A(14,15,16)           120.3641         estimate D2E/DX2                !
 ! A44   A(14,15,32)           119.7912         estimate D2E/DX2                !
 ! A45   A(16,15,32)           119.8447         estimate D2E/DX2                !
 ! A46   A(15,16,17)           120.449          estimate D2E/DX2                !
 ! A47   A(15,16,33)           119.7004         estimate D2E/DX2                !
 ! A48   A(17,16,33)           119.8506         estimate D2E/DX2                !
 ! A49   A(16,17,18)           120.0196         estimate D2E/DX2                !
 ! A50   A(16,17,34)           119.9748         estimate D2E/DX2                !
 ! A51   A(18,17,34)           120.0056         estimate D2E/DX2                !
 ! A52   A(13,18,17)           119.574          estimate D2E/DX2                !
 ! A53   A(13,18,19)           120.0647         estimate D2E/DX2                !
 ! A54   A(17,18,19)           120.3612         estimate D2E/DX2                !
 ! A55   A(6,19,18)            119.9085         estimate D2E/DX2                !
 ! A56   A(6,19,20)            120.059          estimate D2E/DX2                !
 ! A57   A(18,19,20)           120.0326         estimate D2E/DX2                !
 ! A58   A(19,20,21)           119.9122         estimate D2E/DX2                !
 ! A59   A(19,20,35)           120.0827         estimate D2E/DX2                !
 ! A60   A(21,20,35)           120.0052         estimate D2E/DX2                !
 ! A61   A(4,21,20)            120.0289         estimate D2E/DX2                !
 ! A62   A(4,21,22)            120.0304         estimate D2E/DX2                !
 ! A63   A(20,21,22)           119.9408         estimate D2E/DX2                !
 ! A64   A(1,22,21)            119.9419         estimate D2E/DX2                !
 ! A65   A(1,22,36)            120.0396         estimate D2E/DX2                !
 ! A66   A(21,22,36)           120.0185         estimate D2E/DX2                !
 ! D1    D(22,1,2,3)             0.0            estimate D2E/DX2                !
 ! D2    D(22,1,2,24)          180.0            estimate D2E/DX2                !
 ! D3    D(23,1,2,3)           180.0            estimate D2E/DX2                !
 ! D4    D(23,1,2,24)            0.0            estimate D2E/DX2                !
 ! D5    D(2,1,22,21)            0.0            estimate D2E/DX2                !
 ! D6    D(2,1,22,36)          180.0            estimate D2E/DX2                !
 ! D7    D(23,1,22,21)         180.0            estimate D2E/DX2                !
 ! D8    D(23,1,22,36)           0.0            estimate D2E/DX2                !
 ! D9    D(1,2,3,4)              0.0            estimate D2E/DX2                !
 ! D10   D(1,2,3,25)           180.0            estimate D2E/DX2                !
 ! D11   D(24,2,3,4)           180.0            estimate D2E/DX2                !
 ! D12   D(24,2,3,25)            0.0            estimate D2E/DX2                !
 ! D13   D(2,3,4,5)            180.0            estimate D2E/DX2                !
 ! D14   D(2,3,4,21)             0.0            estimate D2E/DX2                !
 ! D15   D(25,3,4,5)             0.0            estimate D2E/DX2                !
 ! D16   D(25,3,4,21)          180.0            estimate D2E/DX2                !
 ! D17   D(3,4,5,6)            180.0            estimate D2E/DX2                !
 ! D18   D(3,4,5,26)             0.0            estimate D2E/DX2                !
 ! D19   D(21,4,5,6)             0.0            estimate D2E/DX2                !
 ! D20   D(21,4,5,26)          180.0            estimate D2E/DX2                !
 ! D21   D(3,4,21,20)          180.0            estimate D2E/DX2                !
 ! D22   D(3,4,21,22)            0.0            estimate D2E/DX2                !
 ! D23   D(5,4,21,20)            0.0            estimate D2E/DX2                !
 ! D24   D(5,4,21,22)          180.0            estimate D2E/DX2                !
 ! D25   D(4,5,6,7)            180.0            estimate D2E/DX2                !
 ! D26   D(4,5,6,19)             0.0            estimate D2E/DX2                !
 ! D27   D(26,5,6,7)             0.0            estimate D2E/DX2                !
 ! D28   D(26,5,6,19)          180.0            estimate D2E/DX2                !
 ! D29   D(5,6,7,8)              0.0            estimate D2E/DX2                !
 ! D30   D(5,6,7,12)           180.0            estimate D2E/DX2                !
 ! D31   D(19,6,7,8)           180.0            estimate D2E/DX2                !
 ! D32   D(19,6,7,12)            0.0            estimate D2E/DX2                !
 ! D33   D(5,6,19,18)          180.0            estimate D2E/DX2                !
 ! D34   D(5,6,19,20)            0.0            estimate D2E/DX2                !
 ! D35   D(7,6,19,18)            0.0            estimate D2E/DX2                !
 ! D36   D(7,6,19,20)          180.0            estimate D2E/DX2                !
 ! D37   D(6,7,8,9)            180.0            estimate D2E/DX2                !
 ! D38   D(6,7,8,27)             0.0            estimate D2E/DX2                !
 ! D39   D(12,7,8,9)             0.0            estimate D2E/DX2                !
 ! D40   D(12,7,8,27)          180.0            estimate D2E/DX2                !
 ! D41   D(6,7,12,11)          180.0            estimate D2E/DX2                !
 ! D42   D(6,7,12,13)            0.0            estimate D2E/DX2                !
 ! D43   D(8,7,12,11)            0.0            estimate D2E/DX2                !
 ! D44   D(8,7,12,13)          180.0            estimate D2E/DX2                !
 ! D45   D(7,8,9,10)             0.0            estimate D2E/DX2                !
 ! D46   D(7,8,9,28)           180.0            estimate D2E/DX2                !
 ! D47   D(27,8,9,10)          180.0            estimate D2E/DX2                !
 ! D48   D(27,8,9,28)            0.0            estimate D2E/DX2                !
 ! D49   D(8,9,10,11)            0.0            estimate D2E/DX2                !
 ! D50   D(8,9,10,29)          180.0            estimate D2E/DX2                !
 ! D51   D(28,9,10,11)         180.0            estimate D2E/DX2                !
 ! D52   D(28,9,10,29)           0.0            estimate D2E/DX2                !
 ! D53   D(9,10,11,12)           0.0            estimate D2E/DX2                !
 ! D54   D(9,10,11,30)         180.0            estimate D2E/DX2                !
 ! D55   D(29,10,11,12)        180.0            estimate D2E/DX2                !
 ! D56   D(29,10,11,30)          0.0            estimate D2E/DX2                !
 ! D57   D(10,11,12,7)           0.0            estimate D2E/DX2                !
 ! D58   D(10,11,12,13)        180.0            estimate D2E/DX2                !
 ! D59   D(30,11,12,7)         180.0            estimate D2E/DX2                !
 ! D60   D(30,11,12,13)          0.0            estimate D2E/DX2                !
 ! D61   D(7,12,13,14)         180.0            estimate D2E/DX2                !
 ! D62   D(7,12,13,18)           0.0            estimate D2E/DX2                !
 ! D63   D(11,12,13,14)          0.0            estimate D2E/DX2                !
 ! D64   D(11,12,13,18)        180.0            estimate D2E/DX2                !
 ! D65   D(12,13,14,15)        180.0            estimate D2E/DX2                !
 ! D66   D(12,13,14,31)          0.0            estimate D2E/DX2                !
 ! D67   D(18,13,14,15)          0.0            estimate D2E/DX2                !
 ! D68   D(18,13,14,31)        180.0            estimate D2E/DX2                !
 ! D69   D(12,13,18,17)        180.0            estimate D2E/DX2                !
 ! D70   D(12,13,18,19)          0.0            estimate D2E/DX2                !
 ! D71   D(14,13,18,17)          0.0            estimate D2E/DX2                !
 ! D72   D(14,13,18,19)        180.0            estimate D2E/DX2                !
 ! D73   D(13,14,15,16)          0.0            estimate D2E/DX2                !
 ! D74   D(13,14,15,32)        180.0            estimate D2E/DX2                !
 ! D75   D(31,14,15,16)        180.0            estimate D2E/DX2                !
 ! D76   D(31,14,15,32)          0.0            estimate D2E/DX2                !
 ! D77   D(14,15,16,17)          0.0            estimate D2E/DX2                !
 ! D78   D(14,15,16,33)        180.0            estimate D2E/DX2                !
 ! D79   D(32,15,16,17)        180.0            estimate D2E/DX2                !
 ! D80   D(32,15,16,33)          0.0            estimate D2E/DX2                !
 ! D81   D(15,16,17,18)          0.0            estimate D2E/DX2                !
 ! D82   D(15,16,17,34)        180.0            estimate D2E/DX2                !
 ! D83   D(33,16,17,18)        180.0            estimate D2E/DX2                !
 ! D84   D(33,16,17,34)          0.0            estimate D2E/DX2                !
 ! D85   D(16,17,18,13)          0.0            estimate D2E/DX2                !
 ! D86   D(16,17,18,19)        180.0            estimate D2E/DX2                !
 ! D87   D(34,17,18,13)        180.0            estimate D2E/DX2                !
 ! D88   D(34,17,18,19)          0.0            estimate D2E/DX2                !
 ! D89   D(13,18,19,6)           0.0            estimate D2E/DX2                !
 ! D90   D(13,18,19,20)        180.0            estimate D2E/DX2                !
 ! D91   D(17,18,19,6)         180.0            estimate D2E/DX2                !
 ! D92   D(17,18,19,20)          0.0            estimate D2E/DX2                !
 ! D93   D(6,19,20,21)           0.0            estimate D2E/DX2                !
 ! D94   D(6,19,20,35)         180.0            estimate D2E/DX2                !
 ! D95   D(18,19,20,21)        180.0            estimate D2E/DX2                !
 ! D96   D(18,19,20,35)          0.0            estimate D2E/DX2                !
 ! D97   D(19,20,21,4)           0.0            estimate D2E/DX2                !
 ! D98   D(19,20,21,22)        180.0            estimate D2E/DX2                !
 ! D99   D(35,20,21,4)         180.0            estimate D2E/DX2                !
 ! D100  D(35,20,21,22)          0.0            estimate D2E/DX2                !
 ! D101  D(4,21,22,1)            0.0            estimate D2E/DX2                !
 ! D102  D(4,21,22,36)         180.0            estimate D2E/DX2                !
 ! D103  D(20,21,22,1)         180.0            estimate D2E/DX2                !
 ! D104  D(20,21,22,36)          0.0            estimate D2E/DX2                !
 --------------------------------------------------------------------------------
 Trust Radius=3.00D-01 FncErr=1.00D-07 GrdErr=1.00D-06 EigMax=2.50D+02 EigMin=1.00D-04
 Number of steps in this run=    216 maximum allowed number of steps=    216.
 GradGradGradGradGradGradGradGradGradGradGradGradGradGradGradGradGradGrad

                          Input orientation:                          
 ---------------------------------------------------------------------
 Center     Atomic      Atomic             Coordinates (Angstroms)
 Number     Number       Type             X           Y           Z
 ---------------------------------------------------------------------
      1          6           0        0.000000   -0.700481   -5.071863
      2          6           0        0.000000    0.700481   -5.071863
      3          6           0        0.000000    1.402297   -3.857640
      4          6           0        0.000000    0.700300   -2.643235
      5          6           0        0.000000    1.401800   -1.429615
      6          6           0        0.000000    0.700245   -0.217369
      7          6           0        0.000000    1.399258    0.997838
      8          6           0        0.000000    2.798799    1.008899
      9          6           0        0.000000    3.490881    2.228830
     10          6           0        0.000000    2.811531    3.406247
     11          6           0        0.000000    1.408579    3.415549
     12          6           0        0.000000    0.699612    2.208353
     13          6           0        0.000000   -0.699612    2.208353
     14          6           0        0.000000   -1.408579    3.415549
     15          6           0        0.000000   -2.811531    3.406247
     16          6           0        0.000000   -3.490881    2.228830
     17          6           0        0.000000   -2.798799    1.008899
     18          6           0        0.000000   -1.399258    0.997838
     19          6           0        0.000000   -0.700245   -0.217369
     20          6           0        0.000000   -1.401800   -1.429615
     21          6           0        0.000000   -0.700300   -2.643235
     22          6           0        0.000000   -1.402297   -3.857640
     23          1           0        0.000000   -1.236002   -5.998130
     24          1           0        0.000000    1.236002   -5.998130
     25          1           0        0.000000    2.470961   -3.857418
     26          1           0        0.000000    2.471719   -1.430057
     27          1           0        0.000000    3.340906    0.087054
     28          1           0        0.000000    4.561584    2.234133
     29          1           0        0.000000    3.349171    4.331078
     30          1           0        0.000000    0.879502    4.345967
     31          1           0        0.000000   -0.879502    4.345967
     32          1           0        0.000000   -3.349171    4.331078
     33          1           0        0.000000   -4.561584    2.234133
     34          1           0        0.000000   -3.340906    0.087054
     35          1           0        0.000000   -2.471719   -1.430057
     36          1           0        0.000000   -2.470961   -3.857418
 ---------------------------------------------------------------------
                    Distance matrix (angstroms):
                    1          2          3          4          5
     1  C    0.000000
     2  C    1.400962   0.000000
     3  C    2.428171   1.402456   0.000000
     4  C    2.803645   2.428628   1.402705   0.000000
     5  C    4.205420   3.709154   2.428026   1.401776   0.000000
     6  C    5.052539   4.854494   3.707351   2.425866   1.400614
     7  C    6.422630   6.109792   4.855480   3.707554   2.427454
     8  C    7.015741   6.432620   5.062946   4.212099   2.810330
     9  C    8.418291   7.815782   6.434850   5.614655   4.212894
    10  C    9.176742   8.736984   7.399325   6.407303   5.037152
    11  C    8.745531   8.516899   7.273193   6.100043   4.845169
    12  C    7.413623   7.280216   6.106557   4.851588   3.705115
    13  C    7.280216   7.413623   6.419836   5.049520   4.201278
    14  C    8.516899   8.745531   7.797456   6.415313   5.601236
    15  C    8.736984   9.176742   8.397643   6.994940   6.413869
    16  C    7.815782   8.418291   7.809501   6.426742   6.109217
    17  C    6.432620   7.015741   6.429029   5.057843   4.857096
    18  C    6.109792   6.422630   5.605746   4.203041   3.706542
    19  C    4.854494   5.052539   4.203838   2.801134   2.426547
    20  C    3.709154   4.205420   3.709214   2.427282   2.803599
    21  C    2.428628   2.803645   2.428106   1.400601   2.427282
    22  C    1.402456   2.428171   2.804594   2.428106   3.709214
    23  H    1.069931   2.146610   3.397398   3.873576   5.275351
    24  H    2.146610   1.069931   2.146940   3.397396   4.571523
    25  H    3.396016   2.146969   1.068664   2.146970   2.652798
    26  H    4.829659   4.049696   2.652702   2.147027   1.069920
    27  H    6.553414   5.795366   4.395317   3.798325   2.461791
    28  H    9.003717   8.263516   6.862274   6.220790   4.838108
    29  H   10.237919   9.768872   8.416973   7.460399   6.080940
    30  H    9.549443   9.419531   8.220249   6.991498   5.799150
    31  H    9.419531   9.549443   8.515033   7.165523   6.209805
    32  H    9.768872  10.237919   9.467394   8.064692   7.467081
    33  H    8.263516   9.003717   8.525115   7.174688   6.998928
    34  H    5.795366   6.553414   6.169164   4.877071   4.979311
    35  H    4.049696   4.829659   4.571779   3.396102   3.873519
    36  H    2.146969   3.396016   3.873258   3.395754   4.570832
                    6          7          8          9         10
     6  C    0.000000
     7  C    1.401909   0.000000
     8  C    2.430569   1.399585   0.000000
     9  C    3.711003   2.426979   1.402572   0.000000
    10  C    4.193820   2.791944   2.397383   1.359349   0.000000
    11  C    3.701329   2.417729   2.779331   2.396724   1.402982
    12  C    2.425722   1.398160   2.417701   2.791344   2.427994
    13  C    2.800665   2.422932   3.698320   4.190543   3.709862
    14  C    4.200623   3.705304   4.847061   5.041132   4.220120
    15  C    5.046104   4.850895   6.101072   6.411451   5.623061
    16  C    4.852775   5.042698   6.406896   6.981762   6.411451
    17  C    3.707700   4.198072   5.597599   6.406896   6.101072
    18  C    2.425828   2.798517   4.198072   5.042698   4.850895
    19  C    1.400489   2.425828   3.707700   4.852775   5.046104
    20  C    2.426547   3.706542   4.857096   6.109217   6.413869
    21  C    2.801134   4.203041   5.057843   6.426742   6.994940
    22  C    4.203838   5.605746   6.429029   7.809501   8.397643
    23  H    6.096413   7.475839   8.085671   9.488218  10.238400
    24  H    5.805535   6.997873   7.179191   8.530378   9.535440
    25  H    4.047888   4.972129   4.877348   6.171114   7.271646
    26  H    2.146796   2.654213   2.460789   3.798176   4.848227
    27  H    2.658151   2.144650   1.069429   2.147021   3.361144
    28  H    4.573817   3.395398   2.146767   1.070716   2.106310
    29  H    5.263571   3.861690   3.367460   2.107019   1.069752
    30  H    4.566855   3.388231   3.849640   3.361781   2.148443
    31  H    4.829041   4.050027   4.966480   4.856184   3.808779
    32  H    6.089839   5.801557   6.988162   7.155820   6.229732
    33  H    5.804886   6.087698   7.461665   8.052467   7.465700
    34  H    4.052600   4.826871   6.208525   7.159645   6.990674
    35  H    3.395875   4.569370   5.807484   6.995717   7.162581
    36  H    4.827681   6.209035   7.172964   8.519740   8.981401
                   11         12         13         14         15
    11  C    0.000000
    12  C    1.399985   0.000000
    13  C    2.429360   1.399224   0.000000
    14  C    2.817158   2.429360   1.399985   0.000000
    15  C    4.220120   3.709862   2.427994   1.402982   0.000000
    16  C    5.041132   4.190543   2.791344   2.396724   1.359349
    17  C    4.847061   3.698320   2.417701   2.779331   2.397383
    18  C    3.705304   2.422932   1.398160   2.417729   2.791944
    19  C    4.200623   2.800665   2.425722   3.701329   4.193820
    20  C    5.601236   4.201278   3.705115   4.845169   5.037152
    21  C    6.415313   5.049520   4.851588   6.100043   6.407303
    22  C    7.797456   6.419836   6.106557   7.273193   7.399325
    23  H    9.778096   8.431664   8.223994   9.415261   9.535440
    24  H    9.415261   8.223994   8.431664   9.778096  10.238400
    25  H    7.350151   6.319119   6.844422   8.242991   8.981401
    26  H    4.960863   4.047022   4.826527   6.207786   7.162581
    27  H    3.848736   3.387676   4.563518   5.799698   6.990674
    28  H    3.367074   3.862059   5.261259   6.085934   7.465700
    29  H    2.145714   3.395015   4.571499   4.845036   6.229732
    30  H    1.070327   2.145170   2.657629   2.470019   3.808779
    31  H    2.470019   2.657629   2.145170   1.070327   2.148443
    32  H    4.845036   4.571499   3.395015   2.145714   1.069752
    33  H    6.085934   5.261259   3.862059   3.367074   2.106310
    34  H    5.799698   4.563518   3.387676   3.848736   3.361144
    35  H    6.207786   4.826527   4.047022   4.960863   4.848227
    36  H    8.242991   6.844422   6.319119   7.350151   7.271646
                   16         17         18         19         20
    16  C    0.000000
    17  C    1.402572   0.000000
    18  C    2.426979   1.399585   0.000000
    19  C    3.711003   2.430569   1.401909   0.000000
    20  C    4.212894   2.810330   2.427454   1.400614   0.000000
    21  C    5.614655   4.212099   3.707554   2.425866   1.401776
    22  C    6.434850   5.062946   4.855480   3.707351   2.428026
    23  H    8.530378   7.179191   6.997873   5.805535   4.571523
    24  H    9.488218   8.085671   7.475839   6.096413   5.275351
    25  H    8.519740   7.172964   6.209035   4.827681   4.570832
    26  H    6.995717   5.807484   4.569370   3.395875   3.873519
    27  H    7.159645   6.208525   4.826871   4.052600   4.979311
    28  H    8.052467   7.461665   6.087698   5.804886   6.998928
    29  H    7.155820   6.988162   5.801557   6.089839   7.467081
    30  H    4.856184   4.966480   4.050027   4.829041   6.209805
    31  H    3.361781   3.849640   3.388231   4.566855   5.799150
    32  H    2.107019   3.367460   3.861690   5.263571   6.080940
    33  H    1.070716   2.146767   3.395398   4.573817   4.838108
    34  H    2.147021   1.069429   2.144650   2.658151   2.461791
    35  H    3.798176   2.460789   2.654213   2.146796   1.069920
    36  H    6.171114   4.877348   4.972129   4.047888   2.652798
                   21         22         23         24         25
    21  C    0.000000
    22  C    1.402705   0.000000
    23  H    3.397396   2.146940   0.000000
    24  H    3.873576   3.397398   2.472003   0.000000
    25  H    3.395754   3.873258   4.280680   2.471391   0.000000
    26  H    3.396102   4.571779   5.883408   4.732261   2.427362
    27  H    4.877071   6.169164   7.614299   6.438950   4.039265
    28  H    7.174688   8.525115  10.068871   8.878607   6.440319
    29  H    8.064692   9.467394  11.301166  10.543151   8.235456
    30  H    7.165523   8.515033  10.558205  10.350238   8.356331
    31  H    6.991498   8.220249  10.350238  10.558205   8.861215
    32  H    7.460399   8.416973  10.543151  11.301166  10.046164
    33  H    6.220790   6.862274   8.878607  10.068871   9.303961
    34  H    3.798325   4.395317   6.438950   7.614299   7.024006
    35  H    2.147027   2.652702   4.732261   5.883408   5.506557
    36  H    2.146970   1.068664   2.471391   4.280680   4.941922
                   26         27         28         29         30
    26  H    0.000000
    27  H    1.748459   0.000000
    28  H    4.218272   2.469819   0.000000
    29  H    5.827572   4.244033   2.422215   0.000000
    30  H    5.991461   4.919030   4.244711   2.469714   0.000000
    31  H    6.677809   5.995847   5.836546   4.228699   1.759004
    32  H    8.189837   7.922681   8.183962   6.698342   4.228699
    33  H    7.930551   8.188974   9.123169   8.183962   5.836546
    34  H    6.007348   6.681812   8.188974   7.922681   5.995847
    35  H    4.943438   6.007348   7.930551   8.189837   6.677809
    36  H    5.506557   7.024006   9.303961  10.046164   8.861215
                   31         32         33         34         35
    31  H    0.000000
    32  H    2.469714   0.000000
    33  H    4.244711   2.422215   0.000000
    34  H    4.919030   4.244033   2.469819   0.000000
    35  H    5.991461   5.827572   4.218272   1.748459   0.000000
    36  H    8.356331   8.235456   6.440319   4.039265   2.427362
                   36
    36  H    0.000000
 Stoichiometry    C22H14
 Framework group  C2V[SGV(C22H14)]
 Deg. of freedom    35
 Full point group                 C2V     NOp   4
 Largest Abelian subgroup         C2V     NOp   4
 Largest concise Abelian subgroup C2      NOp   2
                         Standard orientation:                         
 ---------------------------------------------------------------------
 Center     Atomic      Atomic             Coordinates (Angstroms)
 Number     Number       Type             X           Y           Z
 ---------------------------------------------------------------------
      1          6           0        0.000000    0.700481    5.071707
      2          6           0       -0.000000   -0.700481    5.071707
      3          6           0        0.000000   -1.402297    3.857484
      4          6           0        0.000000   -0.700300    2.643078
      5          6           0        0.000000   -1.401800    1.429458
      6          6           0        0.000000   -0.700245    0.217213
      7          6           0        0.000000   -1.399258   -0.997994
      8          6           0        0.000000   -2.798799   -1.009055
      9          6           0        0.000000   -3.490881   -2.228986
     10          6           0        0.000000   -2.811531   -3.406404
     11          6           0        0.000000   -1.408579   -3.415706
     12          6           0        0.000000   -0.699612   -2.208509
     13          6           0        0.000000    0.699612   -2.208509
     14          6           0        0.000000    1.408579   -3.415706
     15          6           0        0.000000    2.811531   -3.406404
     16          6           0        0.000000    3.490881   -2.228986
     17          6           0        0.000000    2.798799   -1.009055
     18          6           0        0.000000    1.399258   -0.997994
     19          6           0        0.000000    0.700245    0.217213
     20          6           0        0.000000    1.401800    1.429458
     21          6           0        0.000000    0.700300    2.643078
     22          6           0        0.000000    1.402297    3.857484
     23          1           0        0.000000    1.236002    5.997974
     24          1           0       -0.000000   -1.236002    5.997974
     25          1           0        0.000000   -2.470961    3.857262
     26          1           0        0.000000   -2.471719    1.429900
     27          1           0        0.000000   -3.340906   -0.087210
     28          1           0        0.000000   -4.561584   -2.234289
     29          1           0        0.000000   -3.349171   -4.331234
     30          1           0        0.000000   -0.879502   -4.346123
     31          1           0        0.000000    0.879502   -4.346123
     32          1           0        0.000000    3.349171   -4.331234
     33          1           0        0.000000    4.561584   -2.234289
     34          1           0        0.000000    3.340906   -0.087210
     35          1           0        0.000000    2.471719    1.429900
     36          1           0        0.000000    2.470961    3.857262
 ---------------------------------------------------------------------
 Rotational constants (GHZ):           0.4942505           0.2268292           0.1554758
 Standard basis: def2SVPP (5D, 7F)
 There are   135 symmetry adapted cartesian basis functions of A1  symmetry.
 There are    44 symmetry adapted cartesian basis functions of A2  symmetry.
 There are    44 symmetry adapted cartesian basis functions of B1  symmetry.
 There are   135 symmetry adapted cartesian basis functions of B2  symmetry.
 There are   124 symmetry adapted basis functions of A1  symmetry.
 There are    44 symmetry adapted basis functions of A2  symmetry.
 There are    44 symmetry adapted basis functions of B1  symmetry.
 There are   124 symmetry adapted basis functions of B2  symmetry.
   336 basis functions,   606 primitive gaussians,   358 cartesian basis functions
    73 alpha electrons       73 beta electrons
       nuclear repulsion energy      1580.0373836174 Hartrees.
 NAtoms=   36 NActive=   36 NUniq=   18 SFac= 4.00D+00 NAtFMM=   60 NAOKFM=F Big=F
 Integral buffers will be    131072 words long.
 Raffenetti 2 integral format.
 Two-electron integral symmetry is turned on.
 Nuclear repulsion after empirical dispersion term =     1579.9433196595 Hartrees.
 One-electron integrals computed using PRISM.
   4 Symmetry operations used in ECPInt.
 ECPInt:  NShTT=   12880 NPrTT=   51688 LenC2=   11922 LenP2D=   32685.
 LDataN:  DoStor=T MaxTD1= 4 Len=   56
 NBasis=   336 RedAO= T EigKep=  1.18D-04  NBF=   124    44    44   124
 NBsUse=   336 1.00D-06 EigRej= -1.00D+00 NBFU=   124    44    44   124
 ExpMin= 1.22D-01 ExpMax= 1.24D+03 ExpMxC= 1.86D+02 IAcc=3 IRadAn=         5 AccDes= 0.00D+00
 Harris functional with IExCor=  402 and IRadAn=       5 diagonalized for initial guess.
 HarFok:  IExCor=  402 AccDes= 0.00D+00 IRadAn=         5 IDoV= 1 UseB2=F ITyADJ=14
 ICtDFT=  3500011 ScaDFX=  1.000000  1.000000  1.000000  1.000000
 FoFCou: FMM=F IPFlag=           0 FMFlag=      100000 FMFlg1=           0
         NFxFlg=           0 DoJE=T BraDBF=F KetDBF=T FulRan=T
         wScrn=  0.000000 ICntrl=       500 IOpCl=  0 I1Cent=   200000004 NGrid=           0
         NMat0=    1 NMatS0=      1 NMatT0=    0 NMatD0=    1 NMtDS0=    0 NMtDT0=    0
 Petite list used in FoFCou.
 Initial guess orbital symmetries:
       Occupied  (B2) (A1) (B2) (A1) (B2) (A1) (B2) (B2) (A1) (A1)
                 (B2) (A1) (A1) (B2) (B2) (A1) (B2) (A1) (A1) (B2)
                 (A1) (B2) (A1) (A1) (B2) (A1) (A1) (B2) (A1) (B2)
                 (B2) (A1) (B2) (A1) (A1) (B2) (A1) (A1) (B2) (B2)
                 (A1) (A1) (B2) (A1) (A1) (B2) (B2) (A1) (A1) (B2)
                 (A1) (A1) (B2) (B2) (B2) (B1) (A1) (A1) (B2) (B1)
                 (B2) (A1) (A2) (B2) (A1) (B1) (A2) (B1) (B1) (A2)
                 (A2) (B1) (A2)
       Virtual   (B1) (B1) (A2) (B1) (A2) (B1) (A2) (A2) (A1) (B1)
                 (B2) (A1) (A1) (B2) (A2) (A1) (B2) (A1) (A1) (B2)
                 (B2) (A2) (A1) (B2) (A1) (B2) (A1) (A1) (B2) (A1)
                 (B2) (A1) (B2) (B2) (A1) (B2) (A1) (B2) (A1) (A1)
                 (A1) (B2) (B2) (A1) (B2) (A1) (B2) (B2) (A1) (A1)
                 (A1) (B2) (B2) (B2) (B1) (B2) (A1) (A1) (B1) (A2)
                 (A1) (B2) (A1) (B2) (B1) (A1) (B2) (A2) (A1) (B2)
                 (B1) (A1) (A1) (B1) (A2) (B2) (B1) (B2) (A2) (B1)
                 (B1) (B2) (A2) (A1) (B2) (A2) (A1) (B2) (A1) (B2)
                 (B1) (A1) (A1) (A2) (B2) (A1) (B2) (A2) (B1) (B2)
                 (A1) (B2) (B2) (A1) (B2) (A1) (A2) (B2) (A1) (B2)
                 (B1) (A1) (A1) (A2) (B2) (B2) (A1) (B2) (A1) (A1)
                 (B2) (A2) (B2) (A1) (B2) (B2) (A1) (A1) (B2) (B2)
                 (A1) (A1) (B2) (B2) (B1) (A1) (B2) (B1) (B1) (A2)
                 (B1) (B2) (A1) (A1) (A1) (B2) (A2) (B1) (A1) (B2)
                 (B2) (A2) (A1) (B1) (B1) (A2) (A1) (B1) (B1) (B2)
                 (A2) (B2) (B1) (A2) (A2) (B1) (B2) (B2) (A1) (B2)
                 (A1) (A1) (A1) (A1) (B2) (A1) (B2) (A2) (A1) (B2)
                 (A2) (B1) (A1) (A1) (B2) (A1) (A1) (A2) (B2) (B2)
                 (A1) (B2) (A1) (B2) (B1) (A1) (B2) (A1) (A1) (A2)
                 (B1) (B2) (B2) (A1) (B1) (B2) (A1) (A2) (B2) (B1)
                 (A1) (A2) (B2) (A2) (B1) (B2) (B1) (B2) (A1) (A2)
                 (B1) (A2) (B1) (A2) (A1) (B1) (B2) (A2) (A1) (B2)
                 (A1) (B2) (A1) (B2) (A1) (A2) (A1) (B1) (B2) (B2)
                 (A2) (A1) (B2) (A1) (A2) (A1) (B2) (A1) (A2) (B2)
                 (B2) (B2) (A1) (A1) (B2) (B2) (B2) (A1) (B2) (A1)
                 (B2) (B2) (B2)
 The electronic state of the initial guess is 1-A1.
 Requested convergence on RMS density matrix=1.00D-08 within 128 cycles.
 Requested convergence on MAX density matrix=1.00D-06.
 Requested convergence on             energy=1.00D-06.
 No special actions if energy rises.
 Integral accuracy reduced to 1.0D-05 until final iterations.
 Initial convergence to 1.0D-05 achieved.  Increase integral accuracy.
 SCF Done:  E(RB3LYP) =  -846.250781676     A.U. after   20 cycles
            NFock= 20  Conv=0.42D-08     -V/T= 2.0093

 **********************************************************************

            Population analysis using the SCF Density.

 **********************************************************************

 Orbital symmetries:
       Occupied  (A1) (B2) (A1) (B2) (A1) (B2) (A1) (B2) (A1) (B2)
                 (B2) (A1) (B2) (A1) (B2) (A1) (B2) (A1) (B2) (A1)
                 (B2) (A1) (A1) (A1) (B2) (A1) (A1) (B2) (A1) (B2)
                 (A1) (B2) (B2) (A1) (A1) (B2) (A1) (A1) (B2) (B2)
                 (A1) (A1) (B2) (A1) (A1) (B2) (B2) (A1) (A1) (B2)
                 (A1) (B2) (B1) (B2) (A1) (B2) (A1) (B1) (A1) (B2)
                 (A2) (B2) (A1) (B1) (A1) (B2) (A2) (B1) (B1) (A2)
                 (A2) (B1) (A2)
       Virtual   (B1) (B1) (A2) (B1) (A2) (B1) (A2) (A1) (B2) (A1)
                 (A1) (B2) (A2) (A1) (B2) (B2) (A1) (A1) (B1) (B2)
                 (A2) (A1) (B2) (B2) (A1) (B2) (A2) (A1) (A1) (B2)
                 (A1) (B2) (A1) (B2) (A1) (A1) (B2) (A1) (B2) (B2)
                 (A1) (A1) (A1) (B2) (B2) (A1) (B2) (A1) (B2) (B2)
                 (A1) (A1) (A1) (B2) (B1) (A1) (B1) (B2) (A2) (B2)
                 (A1) (B2) (A1) (B1) (A1) (A2) (A1) (B1) (B2) (B2)
                 (A1) (B2) (B1) (A2) (B1) (A1) (B2) (A2) (B1) (A2)
                 (B2) (B1) (B2) (A2) (A1) (A1) (B2) (B1) (A2) (B2)
                 (A1) (A2) (B1) (B2) (A1) (A1) (B2) (B2) (A1) (A1)
                 (B2) (A2) (B2) (A1) (B1) (B2) (A1) (A1) (A2) (B2)
                 (B2) (A1) (B2) (A1) (B2) (B2) (A1) (B2) (B2) (A1)
                 (A1) (A2) (B2) (A1) (B2) (B2) (A1) (B2) (A1) (B2)
                 (A1) (A1) (B2) (B2) (A1) (B2) (B1) (B1) (B2) (B1)
                 (A1) (A2) (B1) (A1) (A1) (B2) (A1) (B2) (B2) (A2)
                 (B1) (A1) (A2) (B1) (A1) (B1) (B2) (B2) (A2) (B1)
                 (B1) (B1) (A2) (A2) (A2) (B1) (B2) (B2) (A1) (B2)
                 (A1) (A1) (B2) (A1) (A1) (A2) (A1) (B2) (A1) (A2)
                 (B1) (B2) (A1) (A1) (B2) (A1) (A2) (A1) (B2) (B2)
                 (A1) (B2) (A1) (B1) (B2) (A1) (B2) (A1) (A2) (A1)
                 (B1) (B2) (B2) (A1) (B1) (B2) (A1) (A2) (B2) (B1)
                 (A2) (A1) (B2) (A2) (B1) (B2) (B1) (A1) (B2) (A2)
                 (B1) (A2) (B1) (A2) (B1) (A1) (A2) (B2) (B2) (A1)
                 (A1) (B2) (A1) (A1) (B2) (A2) (B1) (A1) (B2) (A2)
                 (B2) (B2) (A1) (A2) (A1) (A1) (A2) (B2) (A1) (B2)
                 (B2) (B2) (A1) (A1) (B2) (B2) (B2) (A1) (B2) (A1)
                 (B2) (B2) (B2)
 The electronic state is 1-A1.
 Alpha  occ. eigenvalues --  -10.19207 -10.19174 -10.19166 -10.19129 -10.19048
 Alpha  occ. eigenvalues --  -10.19047 -10.19010 -10.18990 -10.18820 -10.18788
 Alpha  occ. eigenvalues --  -10.18732 -10.18724 -10.18615 -10.18605 -10.18599
 Alpha  occ. eigenvalues --  -10.18592 -10.18575 -10.18560 -10.18427 -10.18426
 Alpha  occ. eigenvalues --  -10.18371 -10.18370  -0.90044  -0.87002  -0.85066
 Alpha  occ. eigenvalues --   -0.82780  -0.78885  -0.78527  -0.76988  -0.75470
 Alpha  occ. eigenvalues --   -0.71912  -0.71863  -0.69985  -0.66202  -0.63629
 Alpha  occ. eigenvalues --   -0.62763  -0.60543  -0.59631  -0.59198  -0.56047
 Alpha  occ. eigenvalues --   -0.55007  -0.51858  -0.51575  -0.49566  -0.48643
 Alpha  occ. eigenvalues --   -0.48429  -0.46848  -0.46259  -0.44423  -0.43763
 Alpha  occ. eigenvalues --   -0.43099  -0.42869  -0.42653  -0.42254  -0.41622
 Alpha  occ. eigenvalues --   -0.40792  -0.39281  -0.39230  -0.37342  -0.36966
 Alpha  occ. eigenvalues --   -0.36966  -0.35675  -0.35387  -0.34222  -0.33028
 Alpha  occ. eigenvalues --   -0.32746  -0.30184  -0.29827  -0.27967  -0.26789
 Alpha  occ. eigenvalues --   -0.23004  -0.22331  -0.20184
 Alpha virt. eigenvalues --   -0.06773  -0.04348  -0.04097  -0.00022   0.01589
 Alpha virt. eigenvalues --    0.03039   0.04257   0.06449   0.06551   0.06928
 Alpha virt. eigenvalues --    0.08682   0.08880   0.10675   0.10988   0.11696
 Alpha virt. eigenvalues --    0.13333   0.13423   0.14468   0.14514   0.15558
 Alpha virt. eigenvalues --    0.18114   0.20806   0.20812   0.23048   0.23903
 Alpha virt. eigenvalues --    0.24363   0.25157   0.25186   0.26971   0.27356
 Alpha virt. eigenvalues --    0.27580   0.27976   0.28396   0.29432   0.29467
 Alpha virt. eigenvalues --    0.31343   0.31748   0.31971   0.32380   0.33990
 Alpha virt. eigenvalues --    0.34144   0.34749   0.35684   0.35767   0.35854
 Alpha virt. eigenvalues --    0.37567   0.38854   0.39341   0.40720   0.41344
 Alpha virt. eigenvalues --    0.41994   0.42657   0.43188   0.44128   0.44345
 Alpha virt. eigenvalues --    0.45952   0.46255   0.46799   0.46997   0.47151
 Alpha virt. eigenvalues --    0.47903   0.48068   0.48824   0.48875   0.49347
 Alpha virt. eigenvalues --    0.49871   0.50477   0.51336   0.51410   0.51865
 Alpha virt. eigenvalues --    0.52254   0.52796   0.53163   0.53783   0.56003
 Alpha virt. eigenvalues --    0.56570   0.56990   0.57214   0.58444   0.59784
 Alpha virt. eigenvalues --    0.59805   0.59938   0.63034   0.64707   0.65161
 Alpha virt. eigenvalues --    0.66387   0.66540   0.66852   0.67733   0.68408
 Alpha virt. eigenvalues --    0.68452   0.69227   0.69332   0.69660   0.70037
 Alpha virt. eigenvalues --    0.70541   0.70712   0.71807   0.72941   0.73026
 Alpha virt. eigenvalues --    0.73953   0.74282   0.75303   0.75673   0.75825
 Alpha virt. eigenvalues --    0.76191   0.77032   0.78486   0.78773   0.79337
 Alpha virt. eigenvalues --    0.80844   0.81152   0.81780   0.82455   0.83816
 Alpha virt. eigenvalues --    0.84777   0.85052   0.86154   0.87251   0.87739
 Alpha virt. eigenvalues --    0.88505   0.88736   0.89847   0.91811   0.93459
 Alpha virt. eigenvalues --    0.96462   0.96855   1.04479   1.04800   1.07358
 Alpha virt. eigenvalues --    1.09255   1.12330   1.13181   1.16243   1.18689
 Alpha virt. eigenvalues --    1.19340   1.20322   1.21913   1.23341   1.24503
 Alpha virt. eigenvalues --    1.25038   1.25967   1.26148   1.26684   1.28500
 Alpha virt. eigenvalues --    1.29894   1.31761   1.32928   1.33885   1.34632
 Alpha virt. eigenvalues --    1.34955   1.35607   1.39357   1.39881   1.40935
 Alpha virt. eigenvalues --    1.42981   1.43436   1.44021   1.44279   1.46324
 Alpha virt. eigenvalues --    1.47027   1.48452   1.48458   1.49006   1.49254
 Alpha virt. eigenvalues --    1.49836   1.50822   1.52124   1.53172   1.57750
 Alpha virt. eigenvalues --    1.66987   1.70006   1.72092   1.72199   1.74974
 Alpha virt. eigenvalues --    1.76074   1.76404   1.77942   1.78409   1.80098
 Alpha virt. eigenvalues --    1.80359   1.81036   1.84333   1.84529   1.84601
 Alpha virt. eigenvalues --    1.85254   1.85966   1.86489   1.88019   1.89254
 Alpha virt. eigenvalues --    1.91863   1.95134   1.96269   1.96973   1.97180
 Alpha virt. eigenvalues --    2.03070   2.03301   2.05269   2.07022   2.07024
 Alpha virt. eigenvalues --    2.07166   2.09051   2.11734   2.12271   2.12975
 Alpha virt. eigenvalues --    2.14285   2.16119   2.17788   2.20211   2.20331
 Alpha virt. eigenvalues --    2.21626   2.21752   2.22587   2.23609   2.24231
 Alpha virt. eigenvalues --    2.24557   2.27309   2.28611   2.28979   2.29816
 Alpha virt. eigenvalues --    2.30012   2.30491   2.32937   2.37999   2.40075
 Alpha virt. eigenvalues --    2.40266   2.41604   2.42398   2.48252   2.48413
 Alpha virt. eigenvalues --    2.50172   2.51502   2.54428   2.58932   2.59181
 Alpha virt. eigenvalues --    2.59240   2.62597   2.63340   2.63660   2.65041
 Alpha virt. eigenvalues --    2.65750   2.66680   2.67366   2.68577   2.69108
 Alpha virt. eigenvalues --    2.74735   2.75394   2.75959   2.77890   2.80513
 Alpha virt. eigenvalues --    2.84184   2.86691   2.88046   2.91733   2.93502
 Alpha virt. eigenvalues --    3.00788   3.07683   3.08915   3.34447   3.35752
 Alpha virt. eigenvalues --    3.42072   3.55173   3.62145
          Condensed to atoms (all electrons):
               1          2          3          4          5          6
     1  C    5.254579   0.139814   0.156122  -0.167843  -0.002402   0.000363
     2  C    0.139814   5.254579   0.192929   0.154859   0.022395  -0.001513
     3  C    0.156122   0.192929   5.484179   0.192991  -0.155459   0.018958
     4  C   -0.167843   0.154859   0.192991   5.522268   0.127856   0.150973
     5  C   -0.002402   0.022395  -0.155459   0.127856   5.889187   0.227019
     6  C    0.000363  -0.001513   0.018958   0.150973   0.227019   5.964122
     7  C   -0.000006   0.000015  -0.001407   0.046907  -0.167942   0.093780
     8  C   -0.000000   0.000002  -0.000061   0.000291  -0.031972  -0.169100
     9  C   -0.000000   0.000000  -0.000001  -0.000414  -0.000453   0.043397
    10  C   -0.000000  -0.000000  -0.000000   0.000025   0.000309  -0.008465
    11  C    0.000000  -0.000000   0.000000  -0.000006  -0.000872   0.032915
    12  C    0.000000  -0.000000   0.000017   0.001853   0.032868  -0.039087
    13  C   -0.000000   0.000000  -0.000006  -0.000836  -0.001954  -0.192245
    14  C   -0.000000   0.000000  -0.000000  -0.000002   0.000146  -0.001450
    15  C   -0.000000  -0.000000   0.000000  -0.000002  -0.000004  -0.000819
    16  C    0.000000  -0.000000  -0.000000   0.000015   0.000005   0.001722
    17  C    0.000002  -0.000000   0.000002   0.000286  -0.000948   0.028811
    18  C    0.000015  -0.000006   0.000169  -0.006806   0.030920  -0.039692
    19  C   -0.001513   0.000363  -0.000558  -0.182401   0.018245   0.006788
    20  C    0.022395  -0.002402   0.026300   0.023903  -0.154033   0.018245
    21  C    0.154859  -0.167843   0.054026  -0.046533   0.023903  -0.182401
    22  C    0.192929   0.156122  -0.180148   0.054026   0.026300  -0.000558
    23  H    0.439635  -0.086364   0.015394  -0.001270   0.000064  -0.000003
    24  H   -0.086364   0.439635  -0.079971   0.016349  -0.000694   0.000010
    25  H    0.015616  -0.088138   0.443568  -0.076524  -0.029241   0.001088
    26  H   -0.000014   0.000587  -0.016683  -0.101876   0.432170  -0.039180
    27  H   -0.000000   0.000002  -0.000062   0.005401   0.018549  -0.073862
    28  H   -0.000000   0.000000  -0.000000  -0.000002   0.000011  -0.000702
    29  H    0.000000   0.000000   0.000000  -0.000000  -0.000001   0.000081
    30  H    0.000000  -0.000000   0.000000  -0.000001   0.000003   0.000037
    31  H   -0.000000   0.000000  -0.000000   0.000000   0.000002  -0.000062
    32  H    0.000000   0.000000  -0.000000   0.000000   0.000000  -0.000000
    33  H    0.000000  -0.000000   0.000000   0.000000  -0.000000   0.000011
    34  H    0.000002  -0.000000   0.000001  -0.000133   0.000084  -0.004081
    35  H    0.000587  -0.000014  -0.000339   0.019449  -0.003173   0.025344
    36  H   -0.088138   0.015616  -0.002341   0.019845  -0.000272  -0.000091
               7          8          9         10         11         12
     1  C   -0.000006  -0.000000  -0.000000  -0.000000   0.000000   0.000000
     2  C    0.000015   0.000002   0.000000  -0.000000  -0.000000  -0.000000
     3  C   -0.001407  -0.000061  -0.000001  -0.000000   0.000000   0.000017
     4  C    0.046907   0.000291  -0.000414   0.000025  -0.000006   0.001853
     5  C   -0.167942  -0.031972  -0.000453   0.000309  -0.000872   0.032868
     6  C    0.093780  -0.169100   0.043397  -0.008465   0.032915  -0.039087
     7  C    5.958608   0.230767   0.166997  -0.215133   0.035503   0.024539
     8  C    0.230767   5.561032   0.114435   0.187169  -0.197195   0.028164
     9  C    0.166997   0.114435   5.316423   0.135359   0.187223  -0.218638
    10  C   -0.215133   0.187169   0.135359   5.302356   0.119586   0.169232
    11  C    0.035503  -0.197195   0.187223   0.119586   5.562370   0.221031
    12  C    0.024539   0.028164  -0.218638   0.169232   0.221031   5.981224
    13  C   -0.038102   0.033205  -0.008342   0.042209  -0.166885   0.090687
    14  C    0.028412  -0.000808   0.000213   0.000278  -0.029760  -0.166885
    15  C    0.001443   0.000001   0.000020  -0.000311   0.000278   0.042209
    16  C   -0.000818  -0.000003  -0.000002   0.000020   0.000213  -0.008342
    17  C   -0.001686   0.000141  -0.000003   0.000001  -0.000808   0.033205
    18  C   -0.189416  -0.001686  -0.000818   0.001443   0.028412  -0.038102
    19  C   -0.039692   0.028811   0.001722  -0.000819  -0.001450  -0.192245
    20  C    0.030920  -0.000948   0.000005  -0.000004   0.000146  -0.001954
    21  C   -0.006806   0.000286   0.000015  -0.000002  -0.000002  -0.000836
    22  C    0.000169   0.000002  -0.000000   0.000000  -0.000000  -0.000006
    23  H   -0.000000   0.000000   0.000000  -0.000000   0.000000  -0.000000
    24  H    0.000000  -0.000000  -0.000000   0.000000  -0.000000   0.000000
    25  H   -0.000016   0.000009  -0.000002   0.000000  -0.000000   0.000002
    26  H   -0.063389   0.014997   0.003640  -0.000209   0.000087  -0.002941
    27  H   -0.026530   0.426872  -0.101262   0.017554  -0.003010   0.027596
    28  H    0.017010  -0.084282   0.443403  -0.090957   0.017341  -0.001239
    29  H   -0.001297   0.017432  -0.091420   0.444101  -0.084468   0.017082
    30  H    0.026984  -0.002950   0.017614  -0.098914   0.430166  -0.032381
    31  H   -0.003404   0.000096  -0.000223   0.003823   0.015083  -0.068399
    32  H    0.000010  -0.000000   0.000000  -0.000002   0.000016  -0.000701
    33  H   -0.000001   0.000000   0.000000  -0.000000  -0.000001   0.000081
    34  H   -0.000034   0.000002   0.000000  -0.000001   0.000005   0.000025
    35  H    0.000019   0.000008  -0.000000   0.000000   0.000001  -0.000089
    36  H   -0.000000   0.000000   0.000000  -0.000000  -0.000000  -0.000001
              13         14         15         16         17         18
     1  C   -0.000000  -0.000000  -0.000000   0.000000   0.000002   0.000015
     2  C    0.000000   0.000000  -0.000000  -0.000000  -0.000000  -0.000006
     3  C   -0.000006  -0.000000   0.000000  -0.000000   0.000002   0.000169
     4  C   -0.000836  -0.000002  -0.000002   0.000015   0.000286  -0.006806
     5  C   -0.001954   0.000146  -0.000004   0.000005  -0.000948   0.030920
     6  C   -0.192245  -0.001450  -0.000819   0.001722   0.028811  -0.039692
     7  C   -0.038102   0.028412   0.001443  -0.000818  -0.001686  -0.189416
     8  C    0.033205  -0.000808   0.000001  -0.000003   0.000141  -0.001686
     9  C   -0.008342   0.000213   0.000020  -0.000002  -0.000003  -0.000818
    10  C    0.042209   0.000278  -0.000311   0.000020   0.000001   0.001443
    11  C   -0.166885  -0.029760   0.000278   0.000213  -0.000808   0.028412
    12  C    0.090687  -0.166885   0.042209  -0.008342   0.033205  -0.038102
    13  C    5.981224   0.221031   0.169232  -0.218638   0.028164   0.024539
    14  C    0.221031   5.562370   0.119586   0.187223  -0.197195   0.035503
    15  C    0.169232   0.119586   5.302356   0.135359   0.187169  -0.215133
    16  C   -0.218638   0.187223   0.135359   5.316423   0.114435   0.166997
    17  C    0.028164  -0.197195   0.187169   0.114435   5.561032   0.230767
    18  C    0.024539   0.035503  -0.215133   0.166997   0.230767   5.958608
    19  C   -0.039087   0.032915  -0.008465   0.043397  -0.169100   0.093780
    20  C    0.032868  -0.000872   0.000309  -0.000453  -0.031972  -0.167942
    21  C    0.001853  -0.000006   0.000025  -0.000414   0.000291   0.046907
    22  C    0.000017   0.000000  -0.000000  -0.000001  -0.000061  -0.001407
    23  H    0.000000  -0.000000   0.000000  -0.000000  -0.000000   0.000000
    24  H   -0.000000   0.000000  -0.000000   0.000000   0.000000  -0.000000
    25  H   -0.000001  -0.000000  -0.000000   0.000000   0.000000  -0.000000
    26  H   -0.000089   0.000001   0.000000  -0.000000   0.000008   0.000019
    27  H    0.000025   0.000005  -0.000001   0.000000   0.000002  -0.000034
    28  H    0.000081  -0.000001  -0.000000   0.000000   0.000000  -0.000001
    29  H   -0.000701   0.000016  -0.000002   0.000000  -0.000000   0.000010
    30  H   -0.068399   0.015083   0.003823  -0.000223   0.000096  -0.003404
    31  H   -0.032381   0.430166  -0.098914   0.017614  -0.002950   0.026984
    32  H    0.017082  -0.084468   0.444101  -0.091420   0.017432  -0.001297
    33  H   -0.001239   0.017341  -0.090957   0.443403  -0.084282   0.017010
    34  H    0.027596  -0.003010   0.017554  -0.101262   0.426872  -0.026530
    35  H   -0.002941   0.000087  -0.000209   0.003640   0.014997  -0.063389
    36  H    0.000002  -0.000000   0.000000  -0.000002   0.000009  -0.000016
              19         20         21         22         23         24
     1  C   -0.001513   0.022395   0.154859   0.192929   0.439635  -0.086364
     2  C    0.000363  -0.002402  -0.167843   0.156122  -0.086364   0.439635
     3  C   -0.000558   0.026300   0.054026  -0.180148   0.015394  -0.079971
     4  C   -0.182401   0.023903  -0.046533   0.054026  -0.001270   0.016349
     5  C    0.018245  -0.154033   0.023903   0.026300   0.000064  -0.000694
     6  C    0.006788   0.018245  -0.182401  -0.000558  -0.000003   0.000010
     7  C   -0.039692   0.030920  -0.006806   0.000169  -0.000000   0.000000
     8  C    0.028811  -0.000948   0.000286   0.000002   0.000000  -0.000000
     9  C    0.001722   0.000005   0.000015  -0.000000   0.000000  -0.000000
    10  C   -0.000819  -0.000004  -0.000002   0.000000  -0.000000   0.000000
    11  C   -0.001450   0.000146  -0.000002  -0.000000   0.000000  -0.000000
    12  C   -0.192245  -0.001954  -0.000836  -0.000006  -0.000000   0.000000
    13  C   -0.039087   0.032868   0.001853   0.000017   0.000000  -0.000000
    14  C    0.032915  -0.000872  -0.000006   0.000000  -0.000000   0.000000
    15  C   -0.008465   0.000309   0.000025  -0.000000   0.000000  -0.000000
    16  C    0.043397  -0.000453  -0.000414  -0.000001  -0.000000   0.000000
    17  C   -0.169100  -0.031972   0.000291  -0.000061  -0.000000   0.000000
    18  C    0.093780  -0.167942   0.046907  -0.001407   0.000000  -0.000000
    19  C    5.964122   0.227019   0.150973   0.018958   0.000010  -0.000003
    20  C    0.227019   5.889187   0.127856  -0.155459  -0.000694   0.000064
    21  C    0.150973   0.127856   5.522268   0.192991   0.016349  -0.001270
    22  C    0.018958  -0.155459   0.192991   5.484179  -0.079971   0.015394
    23  H    0.000010  -0.000694   0.016349  -0.079971   0.678291  -0.013112
    24  H   -0.000003   0.000064  -0.001270   0.015394  -0.013112   0.678291
    25  H   -0.000091  -0.000272   0.019845  -0.002341  -0.000304  -0.012357
    26  H    0.025344  -0.003173   0.019449  -0.000339  -0.000001  -0.000004
    27  H   -0.004081   0.000084  -0.000133   0.000001  -0.000000   0.000000
    28  H    0.000011  -0.000000   0.000000   0.000000  -0.000000   0.000000
    29  H   -0.000000   0.000000   0.000000  -0.000000   0.000000  -0.000000
    30  H   -0.000062   0.000002   0.000000  -0.000000   0.000000   0.000000
    31  H    0.000037   0.000003  -0.000001   0.000000   0.000000   0.000000
    32  H    0.000081  -0.000001  -0.000000   0.000000  -0.000000   0.000000
    33  H   -0.000702   0.000011  -0.000002  -0.000000   0.000000  -0.000000
    34  H   -0.073862   0.018549   0.005401  -0.000062   0.000000  -0.000000
    35  H   -0.039180   0.432170  -0.101876  -0.016683  -0.000004  -0.000001
    36  H    0.001088  -0.029241  -0.076524   0.443568  -0.012357  -0.000304
              25         26         27         28         29         30
     1  C    0.015616  -0.000014  -0.000000  -0.000000   0.000000   0.000000
     2  C   -0.088138   0.000587   0.000002   0.000000   0.000000  -0.000000
     3  C    0.443568  -0.016683  -0.000062  -0.000000   0.000000   0.000000
     4  C   -0.076524  -0.101876   0.005401  -0.000002  -0.000000  -0.000001
     5  C   -0.029241   0.432170   0.018549   0.000011  -0.000001   0.000003
     6  C    0.001088  -0.039180  -0.073862  -0.000702   0.000081   0.000037
     7  C   -0.000016  -0.063389  -0.026530   0.017010  -0.001297   0.026984
     8  C    0.000009   0.014997   0.426872  -0.084282   0.017432  -0.002950
     9  C   -0.000002   0.003640  -0.101262   0.443403  -0.091420   0.017614
    10  C    0.000000  -0.000209   0.017554  -0.090957   0.444101  -0.098914
    11  C   -0.000000   0.000087  -0.003010   0.017341  -0.084468   0.430166
    12  C    0.000002  -0.002941   0.027596  -0.001239   0.017082  -0.032381
    13  C   -0.000001  -0.000089   0.000025   0.000081  -0.000701  -0.068399
    14  C   -0.000000   0.000001   0.000005  -0.000001   0.000016   0.015083
    15  C   -0.000000   0.000000  -0.000001  -0.000000  -0.000002   0.003823
    16  C    0.000000  -0.000000   0.000000   0.000000   0.000000  -0.000223
    17  C    0.000000   0.000008   0.000002   0.000000  -0.000000   0.000096
    18  C   -0.000000   0.000019  -0.000034  -0.000001   0.000010  -0.003404
    19  C   -0.000091   0.025344  -0.004081   0.000011  -0.000000  -0.000062
    20  C   -0.000272  -0.003173   0.000084  -0.000000   0.000000   0.000002
    21  C    0.019845   0.019449  -0.000133   0.000000   0.000000   0.000000
    22  C   -0.002341  -0.000339   0.000001   0.000000  -0.000000  -0.000000
    23  H   -0.000304  -0.000001  -0.000000  -0.000000   0.000000   0.000000
    24  H   -0.012357  -0.000004   0.000000   0.000000  -0.000000   0.000000
    25  H    0.689262   0.008481  -0.000037   0.000000   0.000000  -0.000000
    26  H    0.008481   0.710814  -0.009874   0.000107   0.000000   0.000002
    27  H   -0.000037  -0.009874   0.705709  -0.012979  -0.000358   0.000008
    28  H    0.000000   0.000107  -0.012979   0.689779  -0.015298  -0.000362
    29  H    0.000000   0.000000  -0.000358  -0.015298   0.689720  -0.012894
    30  H   -0.000000   0.000002   0.000008  -0.000362  -0.012894   0.706396
    31  H    0.000000  -0.000000   0.000002   0.000000   0.000091  -0.010949
    32  H    0.000000  -0.000000   0.000000  -0.000000  -0.000000   0.000091
    33  H    0.000000   0.000000  -0.000000  -0.000000  -0.000000   0.000000
    34  H   -0.000000   0.000002  -0.000000  -0.000000   0.000000   0.000002
    35  H    0.000011   0.000007   0.000002   0.000000  -0.000000  -0.000000
    36  H    0.000034   0.000011  -0.000000   0.000000   0.000000   0.000000
              31         32         33         34         35         36
     1  C   -0.000000   0.000000   0.000000   0.000002   0.000587  -0.088138
     2  C    0.000000   0.000000  -0.000000  -0.000000  -0.000014   0.015616
     3  C   -0.000000  -0.000000   0.000000   0.000001  -0.000339  -0.002341
     4  C    0.000000   0.000000   0.000000  -0.000133   0.019449   0.019845
     5  C    0.000002   0.000000  -0.000000   0.000084  -0.003173  -0.000272
     6  C   -0.000062  -0.000000   0.000011  -0.004081   0.025344  -0.000091
     7  C   -0.003404   0.000010  -0.000001  -0.000034   0.000019  -0.000000
     8  C    0.000096  -0.000000   0.000000   0.000002   0.000008   0.000000
     9  C   -0.000223   0.000000   0.000000   0.000000  -0.000000   0.000000
    10  C    0.003823  -0.000002  -0.000000  -0.000001   0.000000  -0.000000
    11  C    0.015083   0.000016  -0.000001   0.000005   0.000001  -0.000000
    12  C   -0.068399  -0.000701   0.000081   0.000025  -0.000089  -0.000001
    13  C   -0.032381   0.017082  -0.001239   0.027596  -0.002941   0.000002
    14  C    0.430166  -0.084468   0.017341  -0.003010   0.000087  -0.000000
    15  C   -0.098914   0.444101  -0.090957   0.017554  -0.000209   0.000000
    16  C    0.017614  -0.091420   0.443403  -0.101262   0.003640  -0.000002
    17  C   -0.002950   0.017432  -0.084282   0.426872   0.014997   0.000009
    18  C    0.026984  -0.001297   0.017010  -0.026530  -0.063389  -0.000016
    19  C    0.000037   0.000081  -0.000702  -0.073862  -0.039180   0.001088
    20  C    0.000003  -0.000001   0.000011   0.018549   0.432170  -0.029241
    21  C   -0.000001  -0.000000  -0.000002   0.005401  -0.101876  -0.076524
    22  C    0.000000   0.000000  -0.000000  -0.000062  -0.016683   0.443568
    23  H    0.000000  -0.000000   0.000000   0.000000  -0.000004  -0.012357
    24  H    0.000000   0.000000  -0.000000  -0.000000  -0.000001  -0.000304
    25  H    0.000000   0.000000   0.000000  -0.000000   0.000011   0.000034
    26  H   -0.000000  -0.000000   0.000000   0.000002   0.000007   0.000011
    27  H    0.000002   0.000000  -0.000000  -0.000000   0.000002  -0.000000
    28  H    0.000000  -0.000000  -0.000000  -0.000000   0.000000   0.000000
    29  H    0.000091  -0.000000  -0.000000   0.000000  -0.000000   0.000000
    30  H   -0.010949   0.000091   0.000000   0.000002  -0.000000   0.000000
    31  H    0.706396  -0.012894  -0.000362   0.000008   0.000002  -0.000000
    32  H   -0.012894   0.689720  -0.015298  -0.000358   0.000000   0.000000
    33  H   -0.000362  -0.015298   0.689779  -0.012979   0.000107   0.000000
    34  H    0.000008  -0.000358  -0.012979   0.705709  -0.009874  -0.000037
    35  H    0.000002   0.000000   0.000107  -0.009874   0.710814   0.008481
    36  H   -0.000000   0.000000   0.000000  -0.000037   0.008481   0.689262
 Mulliken charges:
               1
     1  C   -0.030637
     2  C   -0.030637
     3  C   -0.147619
     4  C    0.247352
     5  C   -0.300617
     6  C    0.139648
     7  C    0.093595
     8  C   -0.154715
     9  C   -0.008888
    10  C   -0.008649
    11  C   -0.165920
    12  C    0.102030
    13  C    0.102030
    14  C   -0.165920
    15  C   -0.008649
    16  C   -0.008888
    17  C   -0.154715
    18  C    0.093595
    19  C    0.139648
    20  C   -0.300617
    21  C    0.247352
    22  C   -0.147619
    23  H    0.044338
    24  H    0.044338
    25  H    0.031408
    26  H    0.022048
    27  H    0.030412
    28  H    0.038079
    29  H    0.037905
    30  H    0.030231
    31  H    0.030231
    32  H    0.037905
    33  H    0.038079
    34  H    0.030412
    35  H    0.022048
    36  H    0.031408
 Sum of Mulliken charges =  -0.00000
 Mulliken charges with hydrogens summed into heavy atoms:
               1
     1  C    0.013701
     2  C    0.013701
     3  C   -0.116212
     4  C    0.247352
     5  C   -0.278569
     6  C    0.139648
     7  C    0.093595
     8  C   -0.124304
     9  C    0.029191
    10  C    0.029256
    11  C   -0.135689
    12  C    0.102030
    13  C    0.102030
    14  C   -0.135689
    15  C    0.029256
    16  C    0.029191
    17  C   -0.124304
    18  C    0.093595
    19  C    0.139648
    20  C   -0.278569
    21  C    0.247352
    22  C   -0.116212
 Electronic spatial extent (au):  <R**2>=           6612.3564
 Charge=              0.0000 electrons
 Dipole moment (field-independent basis, Debye):
    X=             -0.0000    Y=              0.0000    Z=             -0.0800  Tot=              0.0800
 Quadrupole moment (field-independent basis, Debye-Ang):
   XX=           -134.0711   YY=           -111.2671   ZZ=           -111.6912
   XY=              0.0000   XZ=             -0.0000   YZ=              0.0000
 Traceless Quadrupole moment (field-independent basis, Debye-Ang):
   XX=            -15.0613   YY=              7.7427   ZZ=              7.3186
   XY=              0.0000   XZ=             -0.0000   YZ=              0.0000
 Octapole moment (field-independent basis, Debye-Ang**2):
  XXX=             -0.0000  YYY=             -0.0000  ZZZ=             -3.6196  XYY=             -0.0000
  XXY=              0.0000  XXZ=             -0.9991  XZZ=             -0.0000  YZZ=              0.0000
  YYZ=              0.4193  XYZ=             -0.0000
 Hexadecapole moment (field-independent basis, Debye-Ang**3):
 XXXX=           -147.4193 YYYY=          -2706.7189 ZZZZ=          -5641.9321 XXXY=             -0.0000
 XXXZ=              0.0000 YYYX=             -0.0000 YYYZ=              0.0000 ZZZX=              0.0000
 ZZZY=             -0.0000 XXYY=           -565.6122 XXZZ=          -1159.0523 YYZZ=          -1397.8251
 XXYZ=             -0.0000 YYXZ=              0.0000 ZZXY=             -0.0000
 N-N= 1.579943319660D+03 E-N=-5.118431027251D+03  KE= 8.384614119621D+02
 Symmetry A1   KE= 4.124428726112D+02
 Symmetry A2   KE= 1.119420311873D+01
 Symmetry B1   KE= 1.242159731949D+01
 Symmetry B2   KE= 4.024027389127D+02
   4 Symmetry operations used in ECPInt.
 ECPInt:  NShTT=   12880 NPrTT=   51688 LenC2=   11922 LenP2D=   32685.
 LDataN:  DoStor=T MaxTD1= 5 Len=  102
 Calling FoFJK, ICntrl=      2127 FMM=F ISym2X=1 I1Cent= 0 IOpClX= 0 NMat=1 NMatS=1 NMatT=0.
 ***** Axes restored to original set *****
 -------------------------------------------------------------------
 Center     Atomic                   Forces (Hartrees/Bohr)
 Number     Number              X              Y              Z
 -------------------------------------------------------------------
      1        6           0.000000000   -0.014190623    0.029921945
      2        6           0.000000000    0.014190623    0.029921945
      3        6          -0.000000000   -0.023549444   -0.035908288
      4        6           0.000000000    0.030842463    0.005672107
      5        6          -0.000000000   -0.028478173    0.008244770
      6        6           0.000000000    0.013622064   -0.043939561
      7        6          -0.000000000    0.029687647    0.019460184
      8        6          -0.000000000    0.006009378    0.030827759
      9        6          -0.000000000    0.001544377   -0.041951118
     10        6          -0.000000000   -0.036577676    0.021518648
     11        6          -0.000000000    0.028954640   -0.009587652
     12        6           0.000000000    0.034137520    0.016408635
     13        6           0.000000000   -0.034137520    0.016408635
     14        6           0.000000000   -0.028954640   -0.009587652
     15        6          -0.000000000    0.036577676    0.021518648
     16        6          -0.000000000   -0.001544377   -0.041951118
     17        6           0.000000000   -0.006009378    0.030827759
     18        6           0.000000000   -0.029687647    0.019460184
     19        6           0.000000000   -0.013622064   -0.043939561
     20        6          -0.000000000    0.028478173    0.008244770
     21        6           0.000000000   -0.030842463    0.005672107
     22        6          -0.000000000    0.023549444   -0.035908288
     23        1           0.000000000   -0.008969163   -0.015067666
     24        1           0.000000000    0.008969163   -0.015067666
     25        1          -0.000000000    0.018064120    0.000802972
     26        1          -0.000000000    0.011287265   -0.005388746
     27        1          -0.000000000    0.010123225   -0.008100602
     28        1          -0.000000000    0.017357839   -0.001471496
     29        1          -0.000000000    0.007917294    0.016271998
     30        1           0.000000000   -0.001776181    0.012286111
     31        1           0.000000000    0.001776181    0.012286111
     32        1          -0.000000000   -0.007917294    0.016271998
     33        1          -0.000000000   -0.017357839   -0.001471496
     34        1          -0.000000000   -0.010123225   -0.008100602
     35        1          -0.000000000   -0.011287265   -0.005388746
     36        1          -0.000000000   -0.018064120    0.000802972
 -------------------------------------------------------------------
 Cartesian Forces:  Max     0.043939561 RMS     0.017658292

 GradGradGradGradGradGradGradGradGradGradGradGradGradGradGradGradGradGrad
 Berny optimization.
 FormGI is forming the generalized inverse of G from B-inverse, IUseBI=4.
 Internal  Forces:  Max     0.065906891 RMS     0.011568991
 Search for a local minimum.
 Step number   1 out of a maximum of  216
 All quantities printed in internal units (Hartrees-Bohrs-Radians)
 Mixed Optimization -- RFO/linear search
 Second derivative matrix not updated -- first step.
 ITU=  0
     Eigenvalues ---    0.02055   0.02055   0.02055   0.02063   0.02063
     Eigenvalues ---    0.02066   0.02066   0.02067   0.02068   0.02069
     Eigenvalues ---    0.02069   0.02070   0.02070   0.02071   0.02073
     Eigenvalues ---    0.02073   0.02074   0.02074   0.02075   0.02075
     Eigenvalues ---    0.02077   0.02088   0.02089   0.02089   0.02098
     Eigenvalues ---    0.02099   0.02101   0.02292   0.02292   0.02302
     Eigenvalues ---    0.02304   0.02424   0.02424   0.16000   0.16000
     Eigenvalues ---    0.16000   0.16000   0.16000   0.16000   0.16000
     Eigenvalues ---    0.16000   0.16000   0.16000   0.16000   0.16000
     Eigenvalues ---    0.16000   0.16000   0.22000   0.22000   0.22000
     Eigenvalues ---    0.22520   0.22574   0.22604   0.23232   0.23948
     Eigenvalues ---    0.24489   0.24511   0.24572   0.25000   0.25000
     Eigenvalues ---    0.25000   0.25000   0.37140   0.37140   0.37189
     Eigenvalues ---    0.37189   0.37239   0.37239   0.37240   0.37240
     Eigenvalues ---    0.37262   0.37262   0.37302   0.37302   0.37399
     Eigenvalues ---    0.37399   0.38170   0.39196   0.40561   0.41000
     Eigenvalues ---    0.41315   0.41372   0.41677   0.42559   0.43906
     Eigenvalues ---    0.44013   0.45194   0.45196   0.45304   0.45336
     Eigenvalues ---    0.45341   0.45360   0.45416   0.45419   0.45419
     Eigenvalues ---    0.45425   0.45507   0.45617   0.45650   0.45759
     Eigenvalues ---    0.51792   0.51854
 RFO step:  Lambda=-5.92921048D-02 EMin= 2.05453379D-02
 Linear search not attempted -- first point.
 Maximum step size (   0.300) exceeded in Quadratic search.
    -- Step size scaled by   0.827
 Iteration  1 RMS(Cart)=  0.05915681 RMS(Int)=  0.00015918
 Iteration  2 RMS(Cart)=  0.00023170 RMS(Int)=  0.00003915
 Iteration  3 RMS(Cart)=  0.00000003 RMS(Int)=  0.00003915
 ClnCor:  largest displacement from symmetrization is 3.51D-09 for atom    32.
 Variable       Old X    -DE/DX   Delta X   Delta X   Delta X     New X
                                 (Linear)    (Quad)   (Total)
    R1        2.64744   0.01552   0.00000   0.02329   0.02326   2.67069
    R2        2.65026  -0.01669   0.00000  -0.02782  -0.02784   2.62242
    R3        2.02188   0.01753   0.00000   0.03359   0.03359   2.05547
    R4        2.65026  -0.01669   0.00000  -0.02782  -0.02784   2.62242
    R5        2.02188   0.01753   0.00000   0.03359   0.03359   2.05547
    R6        2.65073   0.01861   0.00000   0.03096   0.03098   2.68171
    R7        2.01948   0.01806   0.00000   0.03448   0.03448   2.05396
    R8        2.64897   0.00761   0.00000   0.01209   0.01208   2.66105
    R9        2.64675   0.02298   0.00000   0.03825   0.03826   2.68501
   R10        2.64678   0.00656   0.00000   0.01072   0.01073   2.65751
   R11        2.02186   0.01129   0.00000   0.02163   0.02163   2.04348
   R12        2.64922   0.06394   0.00000   0.10326   0.10326   2.75248
   R13        2.64654   0.03792   0.00000   0.06140   0.06143   2.70797
[...]
 0.,0.,0.00006268,0.,0.,-0.00093518,0.,0.,-0.00062105,0.,0.,0.00620509,
 0.,0.,0.00355337,0.,0.,-0.03747262,0.,0.,0.00368118,0.,0.,0.00774149,0
 .,0.,0.00022129,0.,0.,0.00011680,0.,0.,-0.00001766,0.,0.,0.00001849,0.
 ,0.,-0.00002125,0.,0.,-0.00034543,0.,0.,0.00007845,0.,0.,0.00005294,0.
 ,0.,-0.00000839,0.,0.,0.00001142,0.,0.,0.00000051,0.,0.,0.00000098,0.,
 0.,0.00000110,0.,0.,0.00010850,0.,0.,0.00010709,0.,0.,-0.00356098,0.,0
 .,0.02575348,0.,-0.00001075,0.00000109,0.,0.00001376,-0.00000148,0.,-0
 .00001390,-0.00001566,0.,0.00005897,-0.00000904,0.,-0.00004158,-0.0000
 2452,0.,0.00016890,0.00008112,0.,-0.00071635,0.00069441,0.,-0.00098720
 ,0.00281134,0.,0.01181128,0.01513792,0.,-0.12524074,-0.11823807,0.,-0.
 01071597,-0.02869230,0.,-0.00501326,0.00160773,0.,0.00016373,-0.001453
 35,0.,-0.00003721,-0.00004635,0.,0.00001661,0.00004403,0.,-0.00002188,
 -0.00001896,0.,-0.00002725,-0.00014341,0.,-0.00044488,0.00012827,0.,-0
 .00005086,0.00013004,0.,0.00002370,-0.00004435,0.,-0.00001759,0.000033
 78,0.,0.00001437,-0.00001556,0.,-0.00000069,-0.00000299,0.,0.00000125,
 -0.00000273,0.,0.00000448,-0.00000190,0.,0.00003480,-0.00003930,0.,0.0
 0034326,0.00073844,0.,0.00080896,-0.00083566,0.,0.12872035,0.,0.000007
 98,-0.00001113,0.,-0.00000262,-0.00001370,0.,-0.00001430,0.00000173,0.
 ,-0.00004028,0.00003907,0.,0.00006213,-0.00007383,0.,-0.00008115,0.000
 02464,0.,0.00087000,0.00040417,0.,0.00410550,-0.00296839,0.,-0.0163003
 9,-0.01783659,0.,-0.11864471,-0.27103056,0.,0.00239955,0.00342910,0.,0
 .00061601,0.00151837,0.,0.00010891,0.00001048,0.,-0.00003114,0.0000059
 7,0.,0.00000547,-0.00003295,0.,-0.00003668,0.00001018,0.,0.00001206,0.
 00000773,0.,-0.00002513,0.00008185,0.,0.00000248,-0.00006532,0.,-0.000
 01522,0.00002287,0.,-0.00000995,-0.00002699,0.,0.00000826,0.00001265,0
 .,-0.00000278,-0.00000614,0.,0.00000126,-0.00000704,0.,0.00000209,0.00
 000683,0.,-0.00005797,0.00007103,0.,-0.00071195,-0.00092965,0.,0.00015
 095,0.00120106,0.,0.12795410,0.28523925,-0.00000131,0.,0.,-0.00000129,
 0.,0.,-0.00001664,0.,0.,-0.00002226,0.,0.,-0.00004568,0.,0.,0.00048167
 ,0.,0.,0.00580485,0.,0.,-0.00046034,0.,0.,0.00743853,0.,0.,0.00508378,
 0.,0.,-0.03837325,0.,0.,0.00359706,0.,0.,-0.00334303,0.,0.,0.00011645,
 0.,0.,-0.00041400,0.,0.,-0.00001413,0.,0.,0.00011841,0.,0.,0.00002934,
 0.,0.,-0.00031836,0.,0.,0.00005981,0.,0.,0.00000333,0.,0.,-0.00000385,
 0.,0.,0.00000094,0.,0.,0.00000600,0.,0.,0.00000105,0.,0.,0.00001264,0.
 ,0.,-0.00099307,0.,0.,0.00012534,0.,0.,-0.00467973,0.,0.,0.02414555,0.
 ,0.00000567,-0.00000631,0.,-0.00000475,-0.00000106,0.,-0.00001282,-0.0
 0000893,0.,0.00004996,-0.00004385,0.,-0.00021803,-0.00014909,0.,0.0007
 3190,-0.00059846,0.,-0.00148540,-0.00273112,0.,-0.00049829,-0.00088891
 ,0.,-0.00550381,-0.00142728,0.,-0.01191403,0.02993531,0.,-0.12156719,0
 .11837892,0.,0.01253375,-0.01262822,0.,-0.00031569,0.00152819,0.,-0.00
 401377,-0.00221172,0.,-0.00011036,0.00009545,0.,-0.00001118,0.00002136
 ,0.,0.00004926,0.00012729,0.,0.00009645,-0.00005597,0.,0.00012994,-0.0
 0003893,0.,-0.00006037,0.00006895,0.,0.00001355,-0.00002466,0.,-0.0000
 0779,0.00001957,0.,0.00000089,0.00000286,0.,-0.00000248,0.00000005,0.,
 -0.00000227,0.00000009,0.,0.00000532,-0.00000227,0.,0.00002663,0.00006
 737,0.,-0.00060520,0.00127733,0.,0.00121724,-0.00028205,0.,0.13580079,
 0.,-0.00001693,-0.00002634,0.,0.00000203,0.00000084,0.,-0.00004993,-0.
 00004075,0.,0.00010994,-0.00001214,0.,-0.00039544,-0.00028972,0.,0.001
 18334,-0.00058175,0.,-0.00418807,-0.00254515,0.,-0.00084651,0.00041329
 ,0.,-0.00010241,0.00153803,0.,-0.00239309,0.00316267,0.,0.11849906,-0.
 27640030,0.,0.01462030,-0.01883183,0.,0.00196405,-0.00042436,0.,0.0013
 0467,-0.00073008,0.,-0.00002463,0.00089940,0.,0.00013431,0.00004087,0.
 ,0.00013165,0.00008917,0.,-0.00023349,-0.00007692,0.,0.00023144,0.0000
 3472,0.,-0.00005021,0.00008158,0.,-0.00002870,-0.00003060,0.,0.0000196
 0,0.00001036,0.,-0.00000228,-0.00000487,0.,-0.00000061,-0.00001027,0.,
 0.00000109,0.00000723,0.,0.00001653,0.00002774,0.,0.00009116,-0.000063
 08,0.,-0.00017194,0.00002052,0.,0.00018394,0.00093817,0.,-0.13021181,0
 .29064131,-0.00000129,0.,0.,-0.00000131,0.,0.,-0.00000385,0.,0.,0.0000
 0333,0.,0.,0.00005981,0.,0.,-0.00031836,0.,0.,0.00002934,0.,0.,0.00011
 841,0.,0.,-0.00001413,0.,0.,-0.00041400,0.,0.,0.00011645,0.,0.,-0.0033
 4303,0.,0.,0.00359706,0.,0.,-0.03837325,0.,0.,0.00508378,0.,0.,0.00743
 853,0.,0.,-0.00046034,0.,0.,0.00580485,0.,0.,0.00048167,0.,0.,-0.00004
 568,0.,0.,-0.00002226,0.,0.,-0.00001664,0.,0.,0.00000600,0.,0.,0.00000
 094,0.,0.,0.00000137,0.,0.,-0.00000907,0.,0.,0.00001583,0.,0.,0.000093
 28,0.,0.,0.00001871,0.,0.,0.00154207,0.,0.,0.02414555,0.,-0.00000475,0
 .00000106,0.,0.00000567,0.00000631,0.,-0.00000779,-0.00001957,0.,0.000
 01355,0.00002466,0.,-0.00006037,-0.00006895,0.,0.00012994,0.00003893,0
 .,0.00009645,0.00005597,0.,0.00004926,-0.00012729,0.,-0.00001118,-0.00
 002136,0.,-0.00011036,-0.00009545,0.,-0.00401377,0.00221172,0.,-0.0003
 1569,-0.00152819,0.,0.01253375,0.01262822,0.,-0.12156719,-0.11837892,0
 .,-0.01191403,-0.02993531,0.,-0.00550381,0.00142728,0.,-0.00049829,0.0
 0088891,0.,-0.00148540,0.00273112,0.,0.00073190,0.00059846,0.,-0.00021
 803,0.00014909,0.,0.00004996,0.00004385,0.,-0.00001282,0.00000893,0.,-
 0.00000248,-0.00000005,0.,0.00000089,-0.00000286,0.,-0.00000019,0.0000
 0337,0.,-0.00000716,0.00002031,0.,0.00002883,-0.00001631,0.,0.00001896
 ,-0.00002712,0.,0.00003037,-0.00001410,0.,-0.00439875,0.00024596,0.,0.
 13580079,0.,-0.00000203,0.00000084,0.,0.00001693,-0.00002634,0.,-0.000
 01960,0.00001036,0.,0.00002870,-0.00003060,0.,0.00005021,0.00008158,0.
 ,-0.00023144,0.00003472,0.,0.00023349,-0.00007692,0.,-0.00013165,0.000
 08917,0.,-0.00013431,0.00004087,0.,0.00002463,0.00089940,0.,-0.0013046
 7,-0.00073008,0.,-0.00196405,-0.00042436,0.,-0.01462030,-0.01883183,0.
 ,-0.11849906,-0.27640030,0.,0.00239309,0.00316267,0.,0.00010241,0.0015
 3803,0.,0.00084651,0.00041329,0.,0.00418807,-0.00254515,0.,-0.00118334
 ,-0.00058175,0.,0.00039544,-0.00028972,0.,-0.00010994,-0.00001214,0.,0
 .00004993,-0.00004075,0.,0.00000061,-0.00001027,0.,0.00000228,-0.00000
 487,0.,0.00001139,-0.00000366,0.,0.00003436,-0.00003815,0.,0.00000508,
 0.00000385,0.,-0.00005192,0.00008715,0.,0.00002412,-0.00002001,0.,-0.0
 0024596,0.00213306,0.,0.13021181,0.29064131,-0.00000617,0.,0.,-0.00000
 112,0.,0.,0.00001142,0.,0.,-0.00000839,0.,0.,0.00005294,0.,0.,0.000078
 45,0.,0.,-0.00034543,0.,0.,-0.00002125,0.,0.,0.00001849,0.,0.,-0.00001
 766,0.,0.,0.00011680,0.,0.,0.00022129,0.,0.,0.00774149,0.,0.,0.0036811
 8,0.,0.,-0.03747262,0.,0.,0.00355337,0.,0.,0.00620509,0.,0.,-0.0006210
 5,0.,0.,-0.00093518,0.,0.,0.00006268,0.,0.,-0.00006772,0.,0.,0.0000052
 3,0.,0.,0.00000098,0.,0.,0.00000051,0.,0.,0.00000111,0.,0.,-0.00000337
 ,0.,0.,-0.00000033,0.,0.,0.00000168,0.,0.,-0.00000060,0.,0.,0.00001871
 ,0.,0.,-0.00467973,0.,0.,0.02575348,0.,0.00001376,0.00000148,0.,-0.000
 01075,-0.00000109,0.,0.00001437,0.00001556,0.,-0.00001759,-0.00003378,
 0.,0.00002370,0.00004435,0.,-0.00005086,-0.00013004,0.,-0.00044488,-0.
 00012827,0.,-0.00002725,0.00014341,0.,-0.00002188,0.00001896,0.,0.0000
 1661,-0.00004403,0.,-0.00003721,0.00004635,0.,0.00016373,0.00145335,0.
 ,-0.00501326,-0.00160773,0.,-0.01071597,0.02869230,0.,-0.12524074,0.11
 823807,0.,0.01181128,-0.01513792,0.,-0.00098720,-0.00281134,0.,-0.0007
 1635,-0.00069441,0.,0.00016890,-0.00008112,0.,-0.00004158,0.00002452,0
 .,0.00005897,0.00000904,0.,-0.00001390,0.00001566,0.,0.00000125,0.0000
 0273,0.,-0.00000069,0.00000299,0.,-0.00000117,-0.00000249,0.,0.0000001
 2,-0.00000608,0.,-0.00005625,0.00000387,0.,-0.00000883,-0.00000150,0.,
 -0.00002578,-0.00000910,0.,0.00003037,-0.00002412,0.,0.00121724,-0.000
 18394,0.,0.12872035,0.,0.00000262,-0.00001370,0.,-0.00000798,-0.000011
 13,0.,-0.00000826,0.00001265,0.,0.00000995,-0.00002699,0.,0.00001522,0
 .00002287,0.,-0.00000248,-0.00006532,0.,0.00002513,0.00008185,0.,-0.00
 001206,0.00000773,0.,0.00003668,0.00001018,0.,-0.00000547,-0.00003295,
 0.,0.00003114,0.00000597,0.,-0.00010891,0.00001048,0.,-0.00061601,0.00
 151837,0.,-0.00239955,0.00342910,0.,0.11864471,-0.27103056,0.,0.016300
 39,-0.01783659,0.,-0.00410550,-0.00296839,0.,-0.00087000,0.00040417,0.
 ,0.00008115,0.00002464,0.,-0.00006213,-0.00007383,0.,0.00004028,0.0000
 3907,0.,0.00001430,0.00000173,0.,-0.00000126,-0.00000704,0.,0.00000278
 ,-0.00000614,0.,0.00000636,-0.00000064,0.,0.00000894,-0.00000502,0.,0.
 00000396,-0.00000435,0.,0.00000798,-0.00000097,0.,0.00000910,0.0000081
 3,0.,0.00001410,-0.00002001,0.,0.00028205,0.00093817,0.,-0.12795410,0.
 28523925,-0.00000267,0.,0.,-0.00000199,0.,0.,-0.00000200,0.,0.,0.00002
 552,0.,0.,-0.00001500,0.,0.,-0.00035252,0.,0.,0.00008854,0.,0.,0.00007
 200,0.,0.,-0.00001427,0.,0.,-0.00008180,0.,0.,0.00005931,0.,0.,-0.0009
 3529,0.,0.,-0.00062638,0.,0.,0.00621817,0.,0.,0.00354582,0.,0.,-0.0374
 8723,0.,0.,0.00366398,0.,0.,0.00775702,0.,0.,0.00021199,0.,0.,0.000126
 38,0.,0.,-0.00001647,0.,0.,-0.00000655,0.,0.,0.00000145,0.,0.,0.000001
 99,0.,0.,0.00000280,0.,0.,-0.00002013,0.,0.,0.00000019,0.,0.,0.0000202
 6,0.,0.,0.00000168,0.,0.,0.00009328,0.,0.,0.00012534,0.,0.,-0.00356098
 ,0.,0.,0.02576840,0.,0.00000025,0.00000985,0.,-0.00000898,0.00002701,0
 .,0.00003089,-0.00000243,0.,-0.00001927,0.00000955,0.,-0.00007103,-0.0
 0002385,0.,-0.00000052,0.00026720,0.,-0.00000814,0.00001785,0.,-0.0000
 0353,0.00000561,0.,-0.00001566,-0.00000043,0.,0.00000895,0.00002025,0.
 ,-0.00004608,-0.00006440,0.,0.00006376,0.00001105,0.,0.00079722,-0.000
 00126,0.,0.00049989,-0.00325837,0.,-0.01106298,0.00325343,0.,-0.337165
 56,-0.00228930,0.,-0.01135086,-0.00274784,0.,0.00086514,0.00272350,0.,
 -0.00051513,-0.00049095,0.,-0.00005422,0.00002974,0.,0.00003885,-0.000
 02718,0.,-0.00004684,0.00001153,0.,0.00000164,0.00001127,0.,-0.0000017
 3,0.00000720,0.,-0.00000694,-0.00000110,0.,-0.00001940,0.00002456,0.,-
 0.00000486,0.00000714,0.,-0.00001130,0.00000296,0.,-0.00000883,-0.0000
 0798,0.,0.00001896,0.00005192,0.,-0.00060520,0.00017194,0.,0.00080896,
 -0.00015095,0.,0.35692818,0.,-0.00002259,0.00000059,0.,0.00001836,-0.0
 0000257,0.,-0.00001258,-0.00001285,0.,0.00001558,0.00003606,0.,0.00013
 736,0.00002234,0.,0.00009909,-0.00034918,0.,-0.00007613,-0.00011340,0.
 ,0.00000721,0.00003725,0.,-0.00001358,-0.00001225,0.,0.00000477,0.0000
 7738,0.,0.00000513,-0.00008560,0.,-0.00013336,0.00015344,0.,0.00016792
 ,-0.00111450,0.,-0.00196154,-0.00445150,0.,-0.02818853,0.00502886,0.,-
 0.00267780,-0.05906032,0.,0.02831304,0.00406648,0.,0.00174633,-0.00436
 513,0.,0.00107043,0.00073308,0.,0.00005454,-0.00002277,0.,-0.00006474,
 0.00000889,0.,0.00002971,-0.00002704,0.,0.00000068,-0.00000428,0.,-0.0
 0000068,-0.00000151,0.,0.00000036,0.00000105,0.,0.00002454,-0.00003984
 ,0.,-0.00000844,0.00000052,0.,-0.00000296,0.00000737,0.,0.00000150,-0.
 00000097,0.,0.00002712,0.00008715,0.,-0.00127733,0.00002052,0.,0.00083
 566,0.00120106,0.,0.00226293,0.05698952,-0.00003018,0.,0.,0.00000550,0
 .,0.,0.00004952,0.,0.,-0.00000402,0.,0.,0.00007032,0.,0.,-0.00000965,0
 .,0.,-0.00024524,0.,0.,0.00006515,0.,0.,-0.00001170,0.,0.,-0.00001324,
 0.,0.,-0.00007723,0.,0.,0.00044550,0.,0.,0.00588559,0.,0.,-0.00046798,
 0.,0.,0.00744550,0.,0.,0.00515449,0.,0.,-0.03846895,0.,0.,0.00356042,0
 .,0.,-0.00329392,0.,0.,0.00014159,0.,0.,-0.00034001,0.,0.,0.00000113,0
 .,0.,-0.00000028,0.,0.,0.00000211,0.,0.,-0.00000023,0.,0.,0.00002132,0
 .,0.,-0.00001165,0.,0.,0.00000019,0.,0.,-0.00000033,0.,0.,0.00001583,0
 .,0.,-0.00099307,0.,0.,0.00010709,0.,0.,-0.00468206,0.,0.,0.02406651,0
 .,-0.00006489,-0.00001390,0.,0.00000900,0.00004615,0.,0.00009478,0.000
 00112,0.,0.00009609,-0.00012887,0.,0.00019323,-0.00000762,0.,-0.000194
 40,0.00003122,0.,0.00012877,-0.00020917,0.,0.00007021,0.00009554,0.,-0
 .00005320,0.00000766,0.,0.00000564,-0.00010123,0.,-0.00048611,0.000213
 73,0.,-0.00001064,-0.00159486,0.,-0.00527704,0.00205398,0.,-0.00054025
 ,0.00080260,0.,-0.00086979,0.00274801,0.,0.01129803,0.01564806,0.,-0.1
 3607077,-0.12666360,0.,-0.01030777,-0.02775825,0.,0.00107245,-0.001044
 93,0.,-0.00195184,-0.00016701,0.,0.00079636,0.00052967,0.,-0.00002346,
 0.00002380,0.,0.00000041,-0.00001973,0.,0.00000954,-0.00001172,0.,0.00
 002435,-0.00002511,0.,0.00001525,-0.00001139,0.,-0.00005479,0.00000707
 ,0.,-0.00000486,0.00000844,0.,-0.00005625,-0.00000396,0.,0.00002883,-0
 .00000508,0.,0.00002663,-0.00009116,0.,0.00034326,0.00071195,0.,0.0009
 5851,-0.00033029,0.,0.14025315,0.,0.00001165,-0.00001768,0.,-0.0000217
 2,0.00001560,0.,0.00005059,0.00002524,0.,0.00002274,-0.00010325,0.,-0.
 00004368,-0.00005235,0.,-0.00004796,0.00017588,0.,0.00002556,0.0000256
 9,0.,0.00002269,-0.00002618,0.,-0.00002934,0.00000676,0.,0.00000689,0.
 00001469,0.,0.00000082,0.00000998,0.,0.00016256,0.00015051,0.,0.000562
 40,0.00121516,0.,0.00085158,0.00047829,0.,0.00409568,-0.00311097,0.,-0
 .01669458,-0.02007189,0.,-0.12652330,-0.26144902,0.,-0.00043707,0.0039
 1365,0.,-0.00068480,-0.00191694,0.,0.00344959,-0.00259457,0.,0.0002723
 2,0.00010178,0.,-0.00000492,0.00005364,0.,0.00000254,0.00000871,0.,-0.
 00000221,0.00000396,0.,0.00000193,-0.00001189,0.,-0.00002563,0.0000146
 3,0.,-0.00000707,0.00000960,0.,-0.00000714,0.00000052,0.,-0.00000387,-
 0.00000435,0.,0.00001631,0.00000385,0.,-0.00006737,-0.00006308,0.,-0.0
 0073844,-0.00092965,0.,0.00013888,0.00118759,0.,0.13266293,0.28565318,
 -0.00007902,0.,0.,-0.00019111,0.,0.,0.00007339,0.,0.,0.00546531,0.,0.,
 -0.00034788,0.,0.,0.00667183,0.,0.,0.00038243,0.,0.,-0.00001416,0.,0.,
 -0.00000497,0.,0.,0.00000421,0.,0.,0.00006512,0.,0.,-0.00032821,0.,0.,
 -0.00001697,0.,0.,0.00018439,0.,0.,-0.00001990,0.,0.,-0.00047491,0.,0.
 ,0.00013285,0.,0.,-0.00407824,0.,0.,0.00453475,0.,0.,-0.03831518,0.,0.
 ,0.00512615,0.,0.,-0.00369387,0.,0.,0.00023976,0.,0.,0.00004407,0.,0.,
 0.00019094,0.,0.,-0.00101220,0.,0.,0.00002132,0.,0.,-0.00002013,0.,0.,
 -0.00000337,0.,0.,-0.00000907,0.,0.,0.00001264,0.,0.,0.00010850,0.,0.,
 0.00001551,0.,0.,0.00158240,0.,0.,0.02358076,0.,0.00004090,0.00029251,
 0.,0.00023685,0.00003398,0.,-0.00069580,-0.00063917,0.,0.00069886,0.00
 298708,0.,0.00076549,0.00012497,0.,0.00093649,-0.00284012,0.,-0.000571
 93,0.00045049,0.,-0.00001489,-0.00027179,0.,-0.00003373,0.00003050,0.,
 -0.00000985,-0.00004778,0.,0.00004076,0.00002292,0.,-0.00002557,0.0001
 0384,0.,0.00004449,-0.00022219,0.,-0.00002517,0.00006261,0.,-0.0000531
 8,0.00012438,0.,0.00059967,0.00039389,0.,-0.00103535,0.00298030,0.,-0.
 00188197,0.00103417,0.,-0.01202605,0.00007354,0.,-0.33705569,-0.008469
 65,0.,-0.01386634,-0.00151564,0.,0.00096697,-0.00225892,0.,-0.00000986
 ,0.00004618,0.,0.00004094,0.00003261,0.,-0.00012127,0.00020129,0.,-0.0
 0015460,0.00001530,0.,0.00001525,0.00002563,0.,-0.00001940,-0.00002454
 ,0.,0.00000012,-0.00000894,0.,-0.00000716,-0.00003436,0.,0.00000532,-0
 .00001653,0.,0.00003480,0.00005797,0.,-0.00000507,-0.00004363,0.,0.000
 52487,0.00298645,0.,0.36213378,0.,-0.00039549,0.00019288,0.,0.00017168
 ,0.00012484,0.,0.00124275,0.00038396,0.,0.00129729,-0.00447227,0.,-0.0
 0001131,-0.00085604,0.,-0.00111802,-0.00470650,0.,-0.00128911,0.000655
 76,0.,-0.00005118,-0.00043416,0.,-0.00007435,0.00003932,0.,-0.00002354
 ,-0.00002896,0.,0.00011765,-0.00000308,0.,-0.00013034,0.00017331,0.,-0
 .00003300,-0.00004009,0.,0.00010209,0.00016911,0.,-0.00000337,0.000051
 74,0.,0.00052283,0.00021399,0.,-0.00062509,-0.00361969,0.,0.00062525,0
 .00111607,0.,-0.02721460,0.00538998,0.,-0.00825535,-0.05727272,0.,0.02
 804777,0.00294194,0.,0.00186680,0.00107325,0.,-0.00001618,0.00002538,0
 .,-0.00006686,-0.00001393,0.,0.00019614,-0.00033774,0.,-0.00001530,0.0
 0003890,0.,0.00001139,0.00001463,0.,-0.00002456,-0.00003984,0.,0.00000
 608,-0.00000502,0.,-0.00002031,-0.00003815,0.,0.00000227,0.00002774,0.
 ,0.00003930,0.00007103,0.,0.00000217,0.00000661,0.,0.00257167,-0.00270
 964,0.,0.00341643,0.06227910,0.00471103,0.,0.,0.00814680,0.,0.,-0.0005
 2977,0.,0.,0.00483743,0.,0.,0.00016172,0.,0.,-0.00016738,0.,0.,0.00004
 823,0.,0.,-0.00001319,0.,0.,-0.00000063,0.,0.,-0.00000606,0.,0.,0.0000
 0102,0.,0.,-0.00000029,0.,0.,0.00000716,0.,0.,-0.00001900,0.,0.,0.0000
 0157,0.,0.,-0.00000717,0.,0.,-0.00001965,0.,0.,0.00015994,0.,0.,-0.000
 14185,0.,0.,-0.00294468,0.,0.,0.00371954,0.,0.,-0.03741382,0.,0.,-0.00
 523520,0.,0.,0.00020417,0.,0.,-0.00115292,0.,0.,0.00019094,0.,0.,-0.00
 000023,0.,0.,0.00000280,0.,0.,0.00000111,0.,0.,0.00000137,0.,0.,0.0000
 0105,0.,0.,0.00000110,0.,0.,0.00000567,0.,0.,0.00002960,0.,0.,0.000172
 86,0.,0.,0.02524675,0.,-0.01164843,-0.00288199,0.,0.00079833,0.0031616
 2,0.,0.00076990,-0.00015790,0.,0.00080396,-0.00286497,0.,-0.00068256,0
 .00064993,0.,0.00027391,0.00000552,0.,0.00010030,0.00004470,0.,-0.0000
 3389,-0.00000722,0.,0.00003616,-0.00000392,0.,-0.00001001,-0.00003362,
 0.,-0.00000729,0.00000110,0.,-0.00002177,-0.00003319,0.,-0.00004474,-0
 .00002786,0.,0.00002506,0.00000755,0.,-0.00000061,-0.00001904,0.,0.000
 01789,0.00002441,0.,-0.00000755,-0.00007484,0.,-0.00008443,0.00006840,
 0.,0.00009475,-0.00039981,0.,0.00071617,0.00204162,0.,-0.01237939,0.00
 222898,0.,-0.33389484,0.00015788,0.,0.00091435,0.00017234,0.,-0.000618
 95,-0.00017383,0.,-0.00011967,-0.00000554,0.,-0.00012127,-0.00019614,0
 .,0.00002435,-0.00000193,0.,-0.00000694,-0.00000036,0.,-0.00000117,-0.
 00000636,0.,-0.00000019,-0.00001139,0.,-0.00000227,-0.00000109,0.,0.00
 000448,-0.00000209,0.,0.00001092,-0.00000810,0.,0.00001672,-0.00000500
 ,0.,0.00052735,-0.00087156,0.,0.35455140,0.,0.02870084,0.00434992,0.,0
 .00155665,-0.00430823,0.,0.00002412,-0.00083476,0.,-0.00112337,-0.0045
 7295,0.,-0.00134888,0.00041251,0.,-0.00013762,0.00020267,0.,0.00007760
 ,-0.00000794,0.,-0.00003331,0.00000758,0.,0.00003032,-0.00001617,0.,-0
 .00001643,-0.00001070,0.,0.00002205,0.00000174,0.,-0.00005285,-0.00002
 403,0.,-0.00002401,0.00001391,0.,0.00000767,0.00001183,0.,-0.00000323,
 0.00001209,0.,0.00004490,0.00001295,0.,-0.00006356,-0.00004741,0.,0.00
 001597,-0.00000856,0.,0.00043531,0.00013925,0.,-0.00157222,0.00145478,
 0.,-0.02700149,0.00361671,0.,-0.00030335,-0.05824845,0.,-0.00050842,0.
 00121741,0.,0.00129924,0.00004961,0.,0.00000554,0.00010425,0.,-0.00020
 129,-0.00033774,0.,0.00002511,-0.00001189,0.,0.00000110,0.00000105,0.,
 0.00000249,-0.00000064,0.,-0.00000337,-0.00000366,0.,-0.00000009,0.000
 00723,0.,0.00000190,0.00000683,0.,-0.00000152,-0.00000201,0.,0.0000242
 6,-0.00000745,0.,0.00089624,-0.00041169,0.,-0.00077629,0.05723194\\0.,
 -0.00003813,-0.00001939,0.,0.00003813,-0.00001939,0.,-0.00001651,0.000
 00417,0.,0.00006450,-0.00000738,0.,-0.00001065,-0.00001842,0.,0.000005
 03,-0.00002611,0.,0.00001825,0.00004037,0.,-0.00003261,-0.00002467,0.,
 0.00004352,0.00002236,0.,0.00002648,0.00002306,0.,-0.00005429,-0.00002
 591,0.,0.00003919,0.00001127,0.,-0.00003919,0.00001127,0.,0.00005429,-
 0.00002591,0.,-0.00002648,0.00002306,0.,-0.00004352,0.00002236,0.,0.00
 003261,-0.00002467,0.,-0.00001825,0.00004037,0.,-0.00000503,-0.0000261
 1,0.,0.00001065,-0.00001842,0.,-0.00006450,-0.00000738,0.,0.00001651,0
 .00000417,0.,0.00001864,0.00001601,0.,-0.00001864,0.00001601,0.,-0.000
 01008,0.00001445,0.,-0.00001197,-0.00000641,0.,-0.00000974,0.00001662,
 0.,-0.00002608,-0.00000047,0.,-0.00001638,-0.00002218,0.,-0.00001646,0
 .00000262,0.,0.00001646,0.00000262,0.,0.00001638,-0.00002218,0.,0.0000
 2608,-0.00000047,0.,0.00000974,0.00001662,0.,0.00001197,-0.00000641,0.
 ,0.00001008,0.00001445\\\@
 The archive entry for this job was punched.


 I DO NOT KNOW WHAT I MAY APPEAR TO THE WORLD; BUT TO MYSELF
 I SEEM TO HAVE BEEN ONLY LIKE A BOY PLAYING ON THE SEASHORE,
 AND DIVERTING MYSELF IN NOW AND THEN FINDING A SMOOTHER PEBBLE
 OR A PRETTIER SHELL THAN ORDINARY, WHILST THE GREAT OCEAN OF
 TRUTH LAY ALL UNDISCOVERED BEFORE ME.
                                          -- NEWTON (1642-1726)
 Job cpu time:       0 days  0 hours 44 minutes 10.5 seconds.
 Elapsed time:       0 days  0 hours  2 minutes 47.7 seconds.
 File lengths (MBytes):  RWF=    308 Int=      0 D2E=      0 Chk=     11 Scr=      1
 Normal termination of Gaussian 16 at Thu Jul 31 12:21:52 2025.
