 Entering Gaussian System, Link 0=g16
 Initial command:
 /opt/g16/l1.exe "/tmp/Gau-226898.inp" -scrdir="/tmp/"
 Entering Link 1 = /opt/g16/l1.exe PID=    226902.
  
 Copyright (c) 1988-2019, Gaussian, Inc.  All Rights Reserved.
  
 This is part of the Gaussian(R) 16 program.  It is based on
 the Gaussian(R) 09 system (copyright 2009, Gaussian, Inc.),
 the Gaussian(R) 03 system (copyright 2003, Gaussian, Inc.),
 the Gaussian(R) 98 system (copyright 1998, Gaussian, Inc.),
 the Gaussian(R) 94 system (copyright 1995, Gaussian, Inc.),
 the Gaussian 92(TM) system (copyright 1992, Gaussian, Inc.),
 the Gaussian 90(TM) system (copyright 1990, Gaussian, Inc.),
 the Gaussian 88(TM) system (copyright 1988, Gaussian, Inc.),
 the Gaussian 86(TM) system (copyright 1986, Carnegie Mellon
 University), and the Gaussian 82(TM) system (copyright 1983,
 Carnegie Mellon University). Gaussian is a federally registered
 trademark of Gaussian, Inc.
  
 This software contains proprietary and confidential information,
 including trade secrets, belonging to Gaussian, Inc.
  
 This software is provided under written license and may be
 used, copied, transmitted, or stored only in accord with that
 written license.
  
 The following legend is applicable only to US Government
 contracts under FAR:
  
                    RESTRICTED RIGHTS LEGEND
  
 Use, reproduction and disclosure by the US Government is
 subject to restrictions as set forth in subparagraphs (a)
 and (c) of the Commercial Computer Software - Restricted
 Rights clause in FAR 52.227-19.
  
 Gaussian, Inc.
 340 Quinnipiac St., Bldg. 40, Wallingford CT 06492
  
  
 ---------------------------------------------------------------
 Warning -- This program may not be used in any manner that
 competes with the business of Gaussian, Inc. or will provide
 assistance to any competitor of Gaussian, Inc.  The licensee
 of this program is prohibited from giving any competitor of
 Gaussian, Inc. access to this program.  By using this program,
 the user acknowledges that Gaussian, Inc. is engaged in the
 business of creating and licensing software in the field of
 computational chemistry and represents and warrants to the
 licensee that it is not a competitor of Gaussian, Inc. and that
 it will not use this program in any manner prohibited above.
 ---------------------------------------------------------------
  

 Cite this work as:
 Gaussian 16, Revision C.01,
 M. J. Frisch, G. W. Trucks, H. B. Schlegel, G. E. Scuseria, 
 M. A. Robb, J. R. Cheeseman, G. Scalmani, V. Barone, 
 G. A. Petersson, H. Nakatsuji, X. Li, M. Caricato, A. V. Marenich, 
 J. Bloino, B. G. Janesko, R. Gomperts, B. Mennucci, H. P. Hratchian, 
 J. V. Ortiz, A. F. Izmaylov, J. L. Sonnenberg, D. Williams-Young, 
 F. Ding, F. Lipparini, F. Egidi, J. Goings, B. Peng, A. Petrone, 
 T. Henderson, D. Ranasinghe, V. G. Zakrzewski, J. Gao, N. Rega, 
 G. Zheng, W. Liang, M. Hada, M. Ehara, K. Toyota, R. Fukuda, 
 J. Hasegawa, M. Ishida, T. Nakajima, Y. Honda, O. Kitao, H. Nakai, 
 T. Vreven, K. Throssell, J. A. Montgomery, Jr., J. E. Peralta, 
 F. Ogliaro, M. J. Bearpark, J. J. Heyd, E. N. Brothers, K. N. Kudin, 
 V. N. Staroverov, T. A. Keith, R. Kobayashi, J. Normand, 
 K. Raghavachari, A. P. Rendell, J. C. Burant, S. S. Iyengar, 
 J. Tomasi, M. Cossi, J. M. Millam, M. Klene, C. Adamo, R. Cammi, 
 J. W. Ochterski, R. L. Martin, K. Morokuma, O. Farkas, 
 J. B. Foresman, and D. J. Fox, Gaussian, Inc., Wallingford CT, 2019.
 
 ******************************************
 Gaussian 16:  ES64L-G16RevC.01  3-Jul-2019
                31-Jul-2025 
 ******************************************
 %nprocshared=16
 Will use up to   16 processors via shared memory.
 %mem=19200MB
 ----------------------------------------------------------------------
 #N opt freq B3LYP/def2SVPP symm=veryloose em=gd3bj scale=0.961 press=0
 .987
 ----------------------------------------------------------------------
 1/18=20,19=15,26=3,38=1,113=-987000,114=961000/1,3;
 2/9=110,12=2,17=2,18=2,40=1/2;
 3/5=43,7=202,11=2,25=1,30=1,71=1,74=-5,124=41/1,2,3;
 4//1;
 5/5=2,38=5/2;
 6/7=2,8=2,9=2,10=2,28=1/1;
 7//1,2,3,16;
 1/18=20,19=15,26=3/3(2);
 2/9=110/2;
 99//99;
 2/9=110/2;
 3/5=43,7=202,11=2,25=1,30=1,71=1,74=-5,124=41/1,2,3;
 4/5=5,16=3,69=1/1;
 5/5=2,38=5/2;
 7//1,2,3,16;
 1/18=20,19=15,26=3/3(-5);
 2/9=110/2;
 6/7=2,8=2,9=2,10=2,19=2,28=1/1;
 99/9=1/99;
 ----------------------------------------
 c1ccc2c(c1)cc1ccc3c4ccccc4cc4ccc2c1c43_1
 ----------------------------------------
 Symbolic Z-matrix:
 Charge =  0 Multiplicity = 1
 C                     5.73126  -0.17255   0. 
 C                     5.34559   1.12999   0. 
 C                     3.98259   1.46749   0. 
 C                     3.0138    0.4568    0. 
 C                     3.41193  -0.88385   0. 
 C                     4.77456  -1.19969   0. 
 C                     2.44822  -1.90456   0. 
 C                     1.08594  -1.57657   0. 
 C                     0.11093  -2.58644   0. 
 C                    -1.24843  -2.24217   0. 
 C                    -1.62098  -0.89113   0. 
 C                    -3.08264  -0.46132   0. 
 C                    -4.12161  -1.3901    0. 
 C                    -5.44782  -0.9349    0. 
 C                    -5.71575   0.39926   0. 
 C                    -4.71075   1.31525   0. 
 C                    -3.37043   0.8998    0. 
 C                    -2.3642    1.82484   0. 
 C                    -1.04246   1.46023   0. 
 C                    -0.09067   2.43479   0. 
 C                     1.23528   2.12087   0. 
 C                     1.65004   0.78226   0. 
 C                     0.69473  -0.2315    0. 
 C                    -0.65516   0.10867   0. 
 H                     6.77372  -0.41777   0. 
 H                     6.08372   1.9038    0. 
 H                     3.68613   2.49383   0. 
 H                     5.08786  -2.22179   0. 
 H                     2.75385  -2.93012   0. 
 H                     0.40505  -3.61518   0. 
 H                    -1.99718  -3.00597   0. 
 H                    -3.91036  -2.44012   0. 
 H                    -6.25217  -1.64167   0. 
 H                    -6.73333   0.73103   0. 
 H                    -4.94327   2.36054   0. 
 H                    -2.61629   2.86394   0. 
 H                    -0.38783   3.46218   0. 
 H                     1.96629   2.90459   0. 
 

 GradGradGradGradGradGradGradGradGradGradGradGradGradGradGradGradGradGrad
 Berny optimization.
 Initialization pass.
                           ----------------------------
                           !    Initial Parameters    !
                           ! (Angstroms and Degrees)  !
 --------------------------                            --------------------------
 ! Name  Definition              Value          Derivative Info.                !
 --------------------------------------------------------------------------------
 ! R1    R(1,2)                  1.3584         estimate D2E/DX2                !
 ! R2    R(1,6)                  1.4037         estimate D2E/DX2                !
 ! R3    R(1,25)                 1.0709         estimate D2E/DX2                !
 ! R4    R(2,3)                  1.4042         estimate D2E/DX2                !
 ! R5    R(2,26)                 1.0694         estimate D2E/DX2                !
 ! R6    R(3,4)                  1.4            estimate D2E/DX2                !
 ! R7    R(3,27)                 1.0683         estimate D2E/DX2                !
 ! R8    R(4,5)                  1.3985         estimate D2E/DX2                !
 ! R9    R(4,22)                 1.4021         estimate D2E/DX2                !
 ! R10   R(5,6)                  1.3988         estimate D2E/DX2                !
 ! R11   R(5,7)                  1.4038         estimate D2E/DX2                !
 ! R12   R(6,28)                 1.069          estimate D2E/DX2                !
 ! R13   R(7,8)                  1.4012         estimate D2E/DX2                !
 ! R14   R(7,29)                 1.0701         estimate D2E/DX2                !
 ! R15   R(8,9)                  1.4037         estimate D2E/DX2                !
 ! R16   R(8,23)                 1.4008         estimate D2E/DX2                !
 ! R17   R(9,10)                 1.4023         estimate D2E/DX2                !
 ! R18   R(9,30)                 1.07           estimate D2E/DX2                !
 ! R19   R(10,11)                1.4015         estimate D2E/DX2                !
 ! R20   R(10,31)                1.0696         estimate D2E/DX2                !
 ! R21   R(11,12)                1.5235         estimate D2E/DX2                !
 ! R22   R(11,24)                1.3901         estimate D2E/DX2                !
 ! R23   R(12,13)                1.3936         estimate D2E/DX2                !
 ! R24   R(12,17)                1.3912         estimate D2E/DX2                !
 ! R25   R(13,14)                1.4022         estimate D2E/DX2                !
 ! R26   R(13,32)                1.0711         estimate D2E/DX2                !
 ! R27   R(14,15)                1.3608         estimate D2E/DX2                !
 ! R28   R(14,33)                1.0707         estimate D2E/DX2                !
 ! R29   R(15,16)                1.3598         estimate D2E/DX2                !
 ! R30   R(15,34)                1.0703         estimate D2E/DX2                !
 ! R31   R(16,17)                1.4032         estimate D2E/DX2                !
 ! R32   R(16,35)                1.0708         estimate D2E/DX2                !
 ! R33   R(17,18)                1.3668         estimate D2E/DX2                !
 ! R34   R(18,19)                1.3711         estimate D2E/DX2                !
 ! R35   R(18,36)                1.0692         estimate D2E/DX2                !
 ! R36   R(19,20)                1.3622         estimate D2E/DX2                !
 ! R37   R(19,24)                1.406          estimate D2E/DX2                !
 ! R38   R(20,21)                1.3626         estimate D2E/DX2                !
 ! R39   R(20,37)                1.0695         estimate D2E/DX2                !
 ! R40   R(21,22)                1.4014         estimate D2E/DX2                !
 ! R41   R(21,38)                1.0717         estimate D2E/DX2                !
 ! R42   R(22,23)                1.393          estimate D2E/DX2                !
 ! R43   R(23,24)                1.3921         estimate D2E/DX2                !
 ! A1    A(2,1,6)              120.5399         estimate D2E/DX2                !
 ! A2    A(2,1,25)             119.7305         estimate D2E/DX2                !
 ! A3    A(6,1,25)             119.7296         estimate D2E/DX2                !
 ! A4    A(1,2,3)              120.4012         estimate D2E/DX2                !
 ! A5    A(1,2,26)             119.8582         estimate D2E/DX2                !
 ! A6    A(3,2,26)             119.7406         estimate D2E/DX2                !
 ! A7    A(2,3,4)              119.8795         estimate D2E/DX2                !
 ! A8    A(2,3,27)             120.0191         estimate D2E/DX2                !
 ! A9    A(4,3,27)             120.1014         estimate D2E/DX2                !
 ! A10   A(3,4,5)              119.6728         estimate D2E/DX2                !
 ! A11   A(3,4,22)             120.3645         estimate D2E/DX2                !
 ! A12   A(5,4,22)             119.9627         estimate D2E/DX2                !
 ! A13   A(4,5,6)              119.5901         estimate D2E/DX2                !
 ! A14   A(4,5,7)              120.105          estimate D2E/DX2                !
 ! A15   A(6,5,7)              120.3049         estimate D2E/DX2                !
 ! A16   A(1,6,5)              119.9165         estimate D2E/DX2                !
 ! A17   A(1,6,28)             119.9917         estimate D2E/DX2                !
 ! A18   A(5,6,28)             120.0918         estimate D2E/DX2                !
 ! A19   A(5,7,8)              119.8176         estimate D2E/DX2                !
 ! A20   A(5,7,29)             120.0498         estimate D2E/DX2                !
 ! A21   A(8,7,29)             120.1326         estimate D2E/DX2                !
 ! A22   A(7,8,9)              120.4564         estimate D2E/DX2                !
 ! A23   A(7,8,23)             119.7544         estimate D2E/DX2                !
 ! A24   A(9,8,23)             119.7892         estimate D2E/DX2                !
 ! A25   A(8,9,10)             119.7818         estimate D2E/DX2                !
 ! A26   A(8,9,30)             120.0513         estimate D2E/DX2                !
 ! A27   A(10,9,30)            120.1669         estimate D2E/DX2                !
 ! A28   A(9,10,11)            119.628          estimate D2E/DX2                !
 ! A29   A(9,10,31)            120.2179         estimate D2E/DX2                !
 ! A30   A(11,10,31)           120.1541         estimate D2E/DX2                !
 ! A31   A(10,11,12)           121.8023         estimate D2E/DX2                !
 ! A32   A(10,11,24)           120.5744         estimate D2E/DX2                !
 ! A33   A(12,11,24)           117.6233         estimate D2E/DX2                !
 ! A34   A(11,12,13)           121.8191         estimate D2E/DX2                !
 ! A35   A(11,12,17)           118.3248         estimate D2E/DX2                !
 ! A36   A(13,12,17)           119.856          estimate D2E/DX2                !
 ! A37   A(12,13,14)           119.2613         estimate D2E/DX2                !
 ! A38   A(12,13,32)           120.4192         estimate D2E/DX2                !
 ! A39   A(14,13,32)           120.3195         estimate D2E/DX2                !
 ! A40   A(13,14,15)           120.2993         estimate D2E/DX2                !
 ! A41   A(13,14,33)           119.7509         estimate D2E/DX2                !
 ! A42   A(15,14,33)           119.9498         estimate D2E/DX2                !
 ! A43   A(14,15,16)           120.9918         estimate D2E/DX2                !
 ! A44   A(14,15,34)           119.4134         estimate D2E/DX2                !
 ! A45   A(16,15,34)           119.5948         estimate D2E/DX2                !
 ! A46   A(15,16,17)           120.4313         estimate D2E/DX2                !
 ! A47   A(15,16,35)           119.8062         estimate D2E/DX2                !
 ! A48   A(17,16,35)           119.7625         estimate D2E/DX2                !
 ! A49   A(12,17,16)           119.1603         estimate D2E/DX2                !
 ! A50   A(12,17,18)           120.654          estimate D2E/DX2                !
 ! A51   A(16,17,18)           120.1858         estimate D2E/DX2                !
 ! A52   A(17,18,19)           121.9856         estimate D2E/DX2                !
 ! A53   A(17,18,36)           118.9559         estimate D2E/DX2                !
 ! A54   A(19,18,36)           119.0584         estimate D2E/DX2                !
 ! A55   A(18,19,20)           118.901          estimate D2E/DX2                !
 ! A56   A(18,19,24)           121.4115         estimate D2E/DX2                !
 ! A57   A(20,19,24)           119.6874         estimate D2E/DX2                !
 ! A58   A(19,20,21)           121.0036         estimate D2E/DX2                !
 ! A59   A(19,20,37)           119.5456         estimate D2E/DX2                !
 ! A60   A(21,20,37)           119.4508         estimate D2E/DX2                !
 ! A61   A(20,21,22)           120.5344         estimate D2E/DX2                !
 ! A62   A(20,21,38)           119.6878         estimate D2E/DX2                !
 ! A63   A(22,21,38)           119.7778         estimate D2E/DX2                !
 ! A64   A(4,22,21)            120.6378         estimate D2E/DX2                !
 ! A65   A(4,22,23)            119.8774         estimate D2E/DX2                !
 ! A66   A(21,22,23)           119.4848         estimate D2E/DX2                !
 ! A67   A(8,23,22)            120.4829         estimate D2E/DX2                !
 ! A68   A(8,23,24)            120.361          estimate D2E/DX2                !
 ! A69   A(22,23,24)           119.1561         estimate D2E/DX2                !
 ! A70   A(11,24,19)           120.0007         estimate D2E/DX2                !
 ! A71   A(11,24,23)           119.8656         estimate D2E/DX2                !
 ! A72   A(19,24,23)           120.1337         estimate D2E/DX2                !
 ! D1    D(6,1,2,3)              0.0            estimate D2E/DX2                !
 ! D2    D(6,1,2,26)           180.0            estimate D2E/DX2                !
 ! D3    D(25,1,2,3)           180.0            estimate D2E/DX2                !
 ! D4    D(25,1,2,26)            0.0            estimate D2E/DX2                !
 ! D5    D(2,1,6,5)              0.0            estimate D2E/DX2                !
 ! D6    D(2,1,6,28)           180.0            estimate D2E/DX2                !
 ! D7    D(25,1,6,5)           180.0            estimate D2E/DX2                !
 ! D8    D(25,1,6,28)            0.0            estimate D2E/DX2                !
 ! D9    D(1,2,3,4)              0.0            estimate D2E/DX2                !
 ! D10   D(1,2,3,27)           180.0            estimate D2E/DX2                !
 ! D11   D(26,2,3,4)           180.0            estimate D2E/DX2                !
 ! D12   D(26,2,3,27)            0.0            estimate D2E/DX2                !
 ! D13   D(2,3,4,5)              0.0            estimate D2E/DX2                !
 ! D14   D(2,3,4,22)           180.0            estimate D2E/DX2                !
 ! D15   D(27,3,4,5)           180.0            estimate D2E/DX2                !
 ! D16   D(27,3,4,22)            0.0            estimate D2E/DX2                !
 ! D17   D(3,4,5,6)              0.0            estimate D2E/DX2                !
 ! D18   D(3,4,5,7)            180.0            estimate D2E/DX2                !
 ! D19   D(22,4,5,6)           180.0            estimate D2E/DX2                !
 ! D20   D(22,4,5,7)             0.0            estimate D2E/DX2                !
 ! D21   D(3,4,22,21)            0.0            estimate D2E/DX2                !
 ! D22   D(3,4,22,23)          180.0            estimate D2E/DX2                !
 ! D23   D(5,4,22,21)          180.0            estimate D2E/DX2                !
 ! D24   D(5,4,22,23)            0.0            estimate D2E/DX2                !
 ! D25   D(4,5,6,1)              0.0            estimate D2E/DX2                !
 ! D26   D(4,5,6,28)           180.0            estimate D2E/DX2                !
 ! D27   D(7,5,6,1)            180.0            estimate D2E/DX2                !
 ! D28   D(7,5,6,28)             0.0            estimate D2E/DX2                !
 ! D29   D(4,5,7,8)              0.0            estimate D2E/DX2                !
 ! D30   D(4,5,7,29)           180.0            estimate D2E/DX2                !
 ! D31   D(6,5,7,8)            180.0            estimate D2E/DX2                !
 ! D32   D(6,5,7,29)             0.0            estimate D2E/DX2                !
 ! D33   D(5,7,8,9)            180.0            estimate D2E/DX2                !
 ! D34   D(5,7,8,23)             0.0            estimate D2E/DX2                !
 ! D35   D(29,7,8,9)             0.0            estimate D2E/DX2                !
 ! D36   D(29,7,8,23)          180.0            estimate D2E/DX2                !
 ! D37   D(7,8,9,10)           180.0            estimate D2E/DX2                !
 ! D38   D(7,8,9,30)             0.0            estimate D2E/DX2                !
 ! D39   D(23,8,9,10)            0.0            estimate D2E/DX2                !
 ! D40   D(23,8,9,30)          180.0            estimate D2E/DX2                !
 ! D41   D(7,8,23,22)            0.0            estimate D2E/DX2                !
 ! D42   D(7,8,23,24)          180.0            estimate D2E/DX2                !
 ! D43   D(9,8,23,22)          180.0            estimate D2E/DX2                !
 ! D44   D(9,8,23,24)            0.0            estimate D2E/DX2                !
 ! D45   D(8,9,10,11)            0.0            estimate D2E/DX2                !
 ! D46   D(8,9,10,31)          180.0            estimate D2E/DX2                !
 ! D47   D(30,9,10,11)         180.0            estimate D2E/DX2                !
 ! D48   D(30,9,10,31)           0.0            estimate D2E/DX2                !
 ! D49   D(9,10,11,12)         180.0            estimate D2E/DX2                !
 ! D50   D(9,10,11,24)           0.0            estimate D2E/DX2                !
 ! D51   D(31,10,11,12)          0.0            estimate D2E/DX2                !
 ! D52   D(31,10,11,24)        180.0            estimate D2E/DX2                !
 ! D53   D(10,11,12,13)          0.0            estimate D2E/DX2                !
 ! D54   D(10,11,12,17)        180.0            estimate D2E/DX2                !
 ! D55   D(24,11,12,13)        180.0            estimate D2E/DX2                !
 ! D56   D(24,11,12,17)          0.0            estimate D2E/DX2                !
 ! D57   D(10,11,24,19)        180.0            estimate D2E/DX2                !
 ! D58   D(10,11,24,23)          0.0            estimate D2E/DX2                !
 ! D59   D(12,11,24,19)          0.0            estimate D2E/DX2                !
 ! D60   D(12,11,24,23)        180.0            estimate D2E/DX2                !
 ! D61   D(11,12,13,14)        180.0            estimate D2E/DX2                !
 ! D62   D(11,12,13,32)          0.0            estimate D2E/DX2                !
 ! D63   D(17,12,13,14)          0.0            estimate D2E/DX2                !
 ! D64   D(17,12,13,32)        180.0            estimate D2E/DX2                !
 ! D65   D(11,12,17,16)        180.0            estimate D2E/DX2                !
 ! D66   D(11,12,17,18)          0.0            estimate D2E/DX2                !
 ! D67   D(13,12,17,16)          0.0            estimate D2E/DX2                !
 ! D68   D(13,12,17,18)        180.0            estimate D2E/DX2                !
 ! D69   D(12,13,14,15)          0.0            estimate D2E/DX2                !
 ! D70   D(12,13,14,33)        180.0            estimate D2E/DX2                !
 ! D71   D(32,13,14,15)        180.0            estimate D2E/DX2                !
 ! D72   D(32,13,14,33)          0.0            estimate D2E/DX2                !
 ! D73   D(13,14,15,16)          0.0            estimate D2E/DX2                !
 ! D74   D(13,14,15,34)        180.0            estimate D2E/DX2                !
 ! D75   D(33,14,15,16)        180.0            estimate D2E/DX2                !
 ! D76   D(33,14,15,34)          0.0            estimate D2E/DX2                !
 ! D77   D(14,15,16,17)          0.0            estimate D2E/DX2                !
 ! D78   D(14,15,16,35)        180.0            estimate D2E/DX2                !
 ! D79   D(34,15,16,17)        180.0            estimate D2E/DX2                !
 ! D80   D(34,15,16,35)          0.0            estimate D2E/DX2                !
 ! D81   D(15,16,17,12)          0.0            estimate D2E/DX2                !
 ! D82   D(15,16,17,18)        180.0            estimate D2E/DX2                !
 ! D83   D(35,16,17,12)        180.0            estimate D2E/DX2                !
 ! D84   D(35,16,17,18)          0.0            estimate D2E/DX2                !
 ! D85   D(12,17,18,19)          0.0            estimate D2E/DX2                !
 ! D86   D(12,17,18,36)        180.0            estimate D2E/DX2                !
 ! D87   D(16,17,18,19)        180.0            estimate D2E/DX2                !
 ! D88   D(16,17,18,36)          0.0            estimate D2E/DX2                !
 ! D89   D(17,18,19,20)        180.0            estimate D2E/DX2                !
 ! D90   D(17,18,19,24)          0.0            estimate D2E/DX2                !
 ! D91   D(36,18,19,20)          0.0            estimate D2E/DX2                !
 ! D92   D(36,18,19,24)        180.0            estimate D2E/DX2                !
 ! D93   D(18,19,20,21)        180.0            estimate D2E/DX2                !
 ! D94   D(18,19,20,37)          0.0            estimate D2E/DX2                !
 ! D95   D(24,19,20,21)          0.0            estimate D2E/DX2                !
 ! D96   D(24,19,20,37)        180.0            estimate D2E/DX2                !
 ! D97   D(18,19,24,11)          0.0            estimate D2E/DX2                !
 ! D98   D(18,19,24,23)        180.0            estimate D2E/DX2                !
 ! D99   D(20,19,24,11)        180.0            estimate D2E/DX2                !
 ! D100  D(20,19,24,23)          0.0            estimate D2E/DX2                !
 ! D101  D(19,20,21,22)          0.0            estimate D2E/DX2                !
 ! D102  D(19,20,21,38)        180.0            estimate D2E/DX2                !
 ! D103  D(37,20,21,22)        180.0            estimate D2E/DX2                !
 ! D104  D(37,20,21,38)          0.0            estimate D2E/DX2                !
 ! D105  D(20,21,22,4)         180.0            estimate D2E/DX2                !
 ! D106  D(20,21,22,23)          0.0            estimate D2E/DX2                !
 ! D107  D(38,21,22,4)           0.0            estimate D2E/DX2                !
 ! D108  D(38,21,22,23)        180.0            estimate D2E/DX2                !
 ! D109  D(4,22,23,8)            0.0            estimate D2E/DX2                !
 ! D110  D(4,22,23,24)         180.0            estimate D2E/DX2                !
 ! D111  D(21,22,23,8)         180.0            estimate D2E/DX2                !
 ! D112  D(21,22,23,24)          0.0            estimate D2E/DX2                !
 ! D113  D(8,23,24,11)           0.0            estimate D2E/DX2                !
 ! D114  D(8,23,24,19)         180.0            estimate D2E/DX2                !
 ! D115  D(22,23,24,11)        180.0            estimate D2E/DX2                !
 ! D116  D(22,23,24,19)          0.0            estimate D2E/DX2                !
 --------------------------------------------------------------------------------
 Trust Radius=3.00D-01 FncErr=1.00D-07 GrdErr=1.00D-06 EigMax=2.50D+02 EigMin=1.00D-04
 Number of steps in this run=    228 maximum allowed number of steps=    228.
 GradGradGradGradGradGradGradGradGradGradGradGradGradGradGradGradGradGrad

                          Input orientation:                          
 ---------------------------------------------------------------------
 Center     Atomic      Atomic             Coordinates (Angstroms)
 Number     Number       Type             X           Y           Z
 ---------------------------------------------------------------------
      1          6           0        5.731263   -0.172551    0.000000
      2          6           0        5.345592    1.129993    0.000000
      3          6           0        3.982588    1.467495    0.000000
      4          6           0        3.013797    0.456795    0.000000
      5          6           0        3.411935   -0.883850    0.000000
      6          6           0        4.774560   -1.199690    0.000000
      7          6           0        2.448216   -1.904562    0.000000
      8          6           0        1.085944   -1.576570    0.000000
      9          6           0        0.110934   -2.586445    0.000000
     10          6           0       -1.248435   -2.242171    0.000000
     11          6           0       -1.620981   -0.891130    0.000000
     12          6           0       -3.082639   -0.461324    0.000000
     13          6           0       -4.121615   -1.390103    0.000000
     14          6           0       -5.447821   -0.934904    0.000000
     15          6           0       -5.715754    0.399257    0.000000
     16          6           0       -4.710752    1.315251    0.000000
     17          6           0       -3.370432    0.899799    0.000000
     18          6           0       -2.364200    1.824838    0.000000
     19          6           0       -1.042456    1.460230    0.000000
     20          6           0       -0.090671    2.434785    0.000000
     21          6           0        1.235284    2.120874    0.000000
     22          6           0        1.650044    0.782257    0.000000
     23          6           0        0.694730   -0.231498    0.000000
     24          6           0       -0.655163    0.108673    0.000000
     25          1           0        6.773724   -0.417767    0.000000
     26          1           0        6.083721    1.903799    0.000000
     27          1           0        3.686130    2.493828    0.000000
     28          1           0        5.087861   -2.221788    0.000000
     29          1           0        2.753854   -2.930117    0.000000
     30          1           0        0.405046   -3.615184    0.000000
     31          1           0       -1.997185   -3.005974    0.000000
     32          1           0       -3.910361   -2.440121    0.000000
     33          1           0       -6.252172   -1.641671    0.000000
     34          1           0       -6.733327    0.731026    0.000000
     35          1           0       -4.943272    2.360544    0.000000
     36          1           0       -2.616290    2.863945    0.000000
     37          1           0       -0.387828    3.462181    0.000000
     38          1           0        1.966292    2.904592    0.000000
 ---------------------------------------------------------------------
                    Distance matrix (angstroms):
                    1          2          3          4          5
     1  C    0.000000
     2  C    1.358441   0.000000
     3  C    2.397418   1.404168   0.000000
     4  C    2.789390   2.427027   1.400024   0.000000
     5  C    2.425949   2.791879   2.419600   1.398515   0.000000
     6  C    1.403672   2.398645   2.782282   2.417484   1.398751
     7  C    3.711908   4.195630   3.704736   2.428146   1.403784
     8  C    4.852861   5.046789   4.202009   2.801998   2.426952
     9  C    6.116779   6.419778   5.605723   4.205702   3.714221
    10  C    7.280076   7.406259   6.412895   5.044903   4.854285
    11  C    7.387276   7.253832   6.079729   4.826808   5.032921
    12  C    8.818631   8.577141   7.323781   6.165183   6.508303
    13  C    9.927821   9.796881   8.593251   7.370559   7.550541
    14  C   11.205048  10.989157   9.731605   8.575303   8.859903
    15  C   11.461290  11.085456   9.756996   8.729741   9.217433
    16  C   10.547475  10.058050   8.694673   7.772105   8.415111
    17  C    9.164648   8.719063   7.374902   6.399581   7.012981
    18  C    8.338230   7.741039   6.356839   5.549270   6.379711
    19  C    6.967728   6.396578   5.025049   4.178525   5.033518
    20  C    6.379116   5.590656   4.186537   3.681056   4.825100
    21  C    5.047140   4.228059   2.823931   2.435625   3.710280
    22  C    4.191420   3.711872   2.431113   1.402051   2.424906
    23  C    5.036878   4.846047   3.700890   2.419054   2.794417
    24  C    6.392614   6.087048   4.832715   3.685439   4.186452
    25  H    1.070914   2.105973   3.368182   3.860299   3.393945
    26  H    2.106052   1.069397   2.145955   3.393855   3.861272
    27  H    3.360378   2.147989   1.068292   2.145119   3.388789
    28  H    2.147869   3.361675   3.851290   3.387706   2.144483
    29  H    4.058218   4.816803   4.566046   3.396873   2.149484
    30  H    6.341949   6.850233   6.215499   4.835969   4.062212
    31  H    8.231476   8.427490   7.467905   6.091036   5.810506
    32  H    9.904685   9.920604   8.807276   7.505738   7.485853
    33  H   12.073153  11.924355  10.696599   9.500618   9.693774
    34  H   12.497297  12.085505  10.741192   9.750981  10.272982
    35  H   10.970973  10.362189   8.970424   8.181638   8.963011
    36  H    8.882677   8.148506   6.745018   6.123092   7.098271
    37  H    7.117201   6.189605   4.804094   4.539097   5.772884
    38  H    4.862491   3.816919   2.476025   2.662513   4.054896
                    6          7          8          9         10
     6  C    0.000000
     7  C    2.430787   0.000000
     8  C    3.707820   1.401200   0.000000
     9  C    4.865439   2.434717   1.403742   0.000000
    10  C    6.112547   3.712035   2.427416   1.402286   0.000000
    11  C    6.402981   4.193496   2.792360   2.423556   1.401465
    12  C    7.891816   5.716055   4.315189   3.836020   2.556506
    13  C    8.898213   6.589942   5.210896   4.398375   2.996863
    14  C   10.225810   7.955353   6.565198   5.798909   4.398158
    15  C   10.611472   8.482805   7.082866   6.547115   5.189806
    16  C    9.813056   7.849714   6.477987   6.202571   4.964161
    17  C    8.411228   6.459187   5.098205   4.926845   3.791418
    18  C    7.753042   6.088330   4.844902   5.058231   4.217285
    19  C    6.396315   4.848362   3.708402   4.207836   3.708127
    20  C    6.072882   5.027513   4.180359   5.025276   4.818126
    21  C    4.853105   4.204205   3.700459   4.839733   5.020460
    22  C    3.700097   2.802869   2.425340   3.703648   4.189074
    23  C    4.193139   2.423604   1.400810   2.426230   2.796193
    24  C    5.585132   3.699199   2.423117   2.801885   2.424549
    25  H    2.146639   4.573903   5.804625   7.006849   8.226997
    26  H    3.368315   5.265027   6.090217   7.472380   8.423157
    27  H    3.850553   4.569275   4.830022   6.212182   6.839563
    28  H    1.069038   2.658639   4.053597   4.990268   6.336328
    29  H    2.660382   1.070130   2.148025   2.665171   4.060983
    30  H    4.992721   2.664727   2.149318   1.069956   2.149223
    31  H    7.008508   4.579814   3.398364   2.149458   1.069590
    32  H    8.773057   6.381091   5.070383   4.023957   2.669277
    33  H   11.035587   8.704359   7.338405   6.432862   5.039642
    34  H   11.668724   9.552332   8.152668   7.605887   6.238906
    35  H   10.349470   8.533769   7.200855   7.072319   5.902271
    36  H    8.434323   6.956139   5.781411   6.094628   5.286156
    37  H    6.955811   6.070015   5.249859   6.069155   5.768906
    38  H    4.973078   4.833241   4.566819   5.796020   6.068249
                   11         12         13         14         15
    11  C    0.000000
    12  C    1.523540   0.000000
    13  C    2.549930   1.393593   0.000000
    14  C    3.827090   2.412129   1.402152   0.000000
    15  C    4.293281   2.770180   2.396474   1.360799   0.000000
    16  C    3.796683   2.409766   2.768759   2.367798   1.359807
    17  C    2.503598   1.391215   2.409965   2.771585   2.398141
    18  C    2.815822   2.396391   3.663926   4.138224   3.642142
    19  C    2.421484   2.802627   4.195905   5.014371   4.792221
    20  C    3.661087   4.164050   5.556822   6.328812   5.982051
    21  C    4.150954   5.031123   6.404945   7.348583   7.161068
    22  C    3.674211   4.893340   6.166944   7.302625   7.375749
    23  C    2.407827   3.784354   4.953740   6.182695   6.441440
    24  C    1.390112   2.493499   3.776588   4.904960   5.068927
    25  H    8.408041   9.856459  10.938640  12.232482  12.516173
    26  H    8.195979   9.466570  10.723743  11.875803  11.895010
    27  H    6.294710   7.385740   8.720425   9.756294   9.632376
    28  H    6.839534   8.358008   9.246954  10.613985  11.117013
    29  H    4.826661   6.337159   7.045830   8.440874   9.100494
    30  H    3.394886   4.702209   5.043970   6.437387   7.319831
    31  H    2.148045   2.766488   2.669128   4.024454   5.042159
    32  H    2.764170   2.144939   1.071059   2.151619   3.364746
    33  H    4.691614   3.382183   2.145358   1.070747   2.110244
    34  H    5.363531   3.840471   3.364555   2.104245   1.070292
    35  H    4.648763   3.380073   3.839593   3.333849   2.107931
    36  H    3.884742   3.357810   4.512530   4.738018   3.959970
    37  H    4.524598   4.759821   6.122567   6.703573   6.145592
    38  H    5.222647   6.068039   7.450303   8.349300   8.080256
                   16         17         18         19         20
    16  C    0.000000
    17  C    1.403232   0.000000
    18  C    2.401247   1.366821   0.000000
    19  C    3.671160   2.394484   1.371111   0.000000
    20  C    4.753788   3.621189   2.353926   1.362223   0.000000
    21  C    6.000364   4.764833   3.611636   2.371613   1.362607
    22  C    6.383088   5.021851   4.147424   2.776545   2.400196
    23  C    5.622425   4.219641   3.685860   2.424821   2.779554
    24  C    4.231269   2.828174   2.421989   1.405953   2.393627
    25  H   11.614497  10.229364   9.409088   8.038628   7.433504
    26  H   10.810506   9.507314   8.448290   7.139968   6.197182
    27  H    8.479191   7.234362   6.087203   4.840233   3.777263
    28  H   10.417460   9.015932   8.479882   7.151087   6.964257
    29  H    8.587403   7.223236   6.985991   5.804060   6.072356
    30  H    7.104968   5.885516   6.104306   5.277792   6.070244
    31  H    5.102592   4.140154   4.844734   4.567110   5.765124
    32  H    3.839720   3.383281   4.536573   4.841242   6.193121
    33  H    3.334571   3.842330   5.208936   6.063245   7.387935
    34  H    2.105262   3.367127   4.503965   5.737399   6.857672
    35  H    1.070842   2.146532   2.634121   4.003365   4.853168
    36  H    2.604846   2.103948   1.069248   2.108879   2.561821
    37  H    4.826694   3.932140   2.566503   2.106263   1.069507
    38  H    6.863594   5.700861   4.463074   3.337476   2.109933
                   21         22         23         24         25
    21  C    0.000000
    22  C    1.401400   0.000000
    23  C    2.413680   1.392955   0.000000
    24  C    2.760931   2.401602   1.392094   0.000000
    25  H    6.092538   5.262334   6.081848   7.447516   0.000000
    26  H    4.853295   4.573330   5.796613   6.973882   2.421935
    27  H    2.479061   2.659911   4.046712   4.953362   4.243892
    28  H    5.805263   4.565400   4.822952   6.197852   2.469135
    29  H    5.274331   3.872998   3.394487   4.566798   4.740386
    30  H    5.795831   4.570285   3.396064   3.871840   7.126257
    31  H    6.060811   5.258609   3.865763   3.391467   9.144816
    32  H    6.876070   6.426650   5.107336   4.134328  10.873804
    33  H    8.379662   8.265618   7.088585   5.864317  13.083269
    34  H    8.088908   8.383527   7.490158   6.109943  13.555816
    35  H    6.183202   6.779587   6.205299   4.843429  12.041885
    36  H    3.922598   4.747108   4.532617   3.381944   9.946959
    37  H    2.105611   3.366737   3.849051   3.364148   8.145050
    38  H    1.071722   2.145768   3.384070   3.832648   5.843755
                   26         27         28         29         30
    26  H    0.000000
    27  H    2.469124   0.000000
    28  H    4.244079   4.919542   0.000000
    29  H    5.869817   5.503483   2.439122   0.000000
    30  H    7.918745   6.934374   4.885725   2.446675   0.000000
    31  H    9.455523   7.908723   7.128311   4.751644   2.478275
    32  H   10.897308   9.058176   9.000871   6.682205   4.472528
    33  H   12.835288  10.764395  11.354862   9.097725   6.943580
    34  H   12.870591  10.567524  12.184400  10.169099   8.357386
    35  H   11.036448   8.630431  11.028209   9.340066   8.019589
    36  H    8.752832   6.313279   9.231394   7.899975   7.148956
    37  H    6.656539   4.187463   7.892445   7.122615   7.121639
    38  H    4.237312   1.768211   6.001998   5.887622   6.704101
                   31         32         33         34         35
    31  H    0.000000
    32  H    1.995103   0.000000
    33  H    4.468360   2.474187   0.000000
    34  H    6.032928   4.245622   2.420992   0.000000
    35  H    6.122005   4.910528   4.210813   2.420666   0.000000
    36  H    5.902477   5.459646   5.789664   4.636737   2.380810
    37  H    6.665363   6.873530   7.774306   6.908296   4.686755
    38  H    7.116456   7.943615   9.392106   8.967037   6.930949
                   36         37         38
    36  H    0.000000
    37  H    2.307364   0.000000
    38  H    4.582762   2.419254   0.000000
 Stoichiometry    C24H14
 Framework group  CS[SG(C24H14)]
 Deg. of freedom    73
 Full point group                 CS      NOp   2
 Largest Abelian subgroup         CS      NOp   2
 Largest concise Abelian subgroup C1      NOp   1
                         Standard orientation:                         
 ---------------------------------------------------------------------
 Center     Atomic      Atomic             Coordinates (Angstroms)
 Number     Number       Type             X           Y           Z
 ---------------------------------------------------------------------
      1          6           0       -0.767612   -5.682246    0.000000
      2          6           0       -1.989489   -5.088631    0.000000
      3          6           0       -2.099406   -3.688772    0.000000
      4          6           0       -0.943802   -2.898426    0.000000
      5          6           0        0.313623   -3.510574    0.000000
      6          6           0        0.402233   -4.906515    0.000000
      7          6           0        1.478276   -2.726869    0.000000
      8          6           0        1.377621   -1.329289    0.000000
      9          6           0        2.533429   -0.532672    0.000000
     10          6           0        2.416237    0.864708   -0.000000
     11          6           0        1.144368    1.453312   -0.000000
     12          6           0        0.959534    2.965599   -0.000000
     13          6           0        2.045807    3.838589   -0.000000
     14          6           0        1.813758    5.221406   -0.000000
     15          6           0        0.541424    5.704043   -0.000000
     16          6           0       -0.526678    4.862477   -0.000000
     17          6           0       -0.336149    3.472240   -0.000000
     18          6           0       -1.413375    2.630940   -0.000000
     19          6           0       -1.269965    1.267349   -0.000000
     20          6           0       -2.387130    0.487866   -0.000000
     21          6           0       -2.294423   -0.871583    0.000000
     22          6           0       -1.041718   -1.499798    0.000000
     23          6           0        0.114695   -0.723247    0.000000
     24          6           0        0.000000    0.664114   -0.000000
     25          1           0       -0.696285   -6.750782    0.000000
     26          1           0       -2.873649   -5.690189    0.000000
     27          1           0       -3.063395   -3.228366    0.000000
     28          1           0        1.359287   -5.382844    0.000000
     29          1           0        2.439994   -3.196205    0.000000
     30          1           0        3.500174   -0.991158    0.000000
     31          1           0        3.292267    1.478381   -0.000000
     32          1           0        3.047104    3.458363   -0.000000
     33          1           0        2.642619    5.899263   -0.000000
     34          1           0        0.380637    6.762189   -0.000000
     35          1           0       -1.519832    5.262909   -0.000000
     36          1           0       -2.397224    3.049667   -0.000000
     37          1           0       -3.352052    0.949136   -0.000000
     38          1           0       -3.187196   -1.464494    0.000000
 ---------------------------------------------------------------------
 Rotational constants (GHZ):           0.7759673           0.1457197           0.1226812
 Standard basis: def2SVPP (5D, 7F)
 There are   292 symmetry adapted cartesian basis functions of A'  symmetry.
 There are    96 symmetry adapted cartesian basis functions of A"  symmetry.
 There are   268 symmetry adapted basis functions of A'  symmetry.
 There are    96 symmetry adapted basis functions of A"  symmetry.
   364 basis functions,   656 primitive gaussians,   388 cartesian basis functions
    79 alpha electrons       79 beta electrons
       nuclear repulsion energy      1799.4669840749 Hartrees.
 NAtoms=   38 NActive=   38 NUniq=   38 SFac= 1.00D+00 NAtFMM=   60 NAOKFM=F Big=F
 Integral buffers will be    131072 words long.
 Raffenetti 2 integral format.
 Two-electron integral symmetry is turned on.
 Nuclear repulsion after empirical dispersion term =     1799.3635438349 Hartrees.
 One-electron integrals computed using PRISM.
   2 Symmetry operations used in ECPInt.
 ECPInt:  NShTT=   14878 NPrTT=   59694 LenC2=   13457 LenP2D=   36545.
 LDataN:  DoStor=T MaxTD1= 4 Len=   56
 NBasis=   364 RedAO= T EigKep=  1.55D-04  NBF=   268    96
 NBsUse=   364 1.00D-06 EigRej= -1.00D+00 NBFU=   268    96
 ExpMin= 1.22D-01 ExpMax= 1.24D+03 ExpMxC= 1.86D+02 IAcc=3 IRadAn=         5 AccDes= 0.00D+00
 Harris functional with IExCor=  402 and IRadAn=       5 diagonalized for initial guess.
 HarFok:  IExCor=  402 AccDes= 0.00D+00 IRadAn=         5 IDoV= 1 UseB2=F ITyADJ=14
 ICtDFT=  3500011 ScaDFX=  1.000000  1.000000  1.000000  1.000000
 FoFCou: FMM=F IPFlag=           0 FMFlag=      100000 FMFlg1=           0
         NFxFlg=           0 DoJE=T BraDBF=F KetDBF=T FulRan=T
         wScrn=  0.000000 ICntrl=       500 IOpCl=  0 I1Cent=   200000004 NGrid=           0
         NMat0=    1 NMatS0=      1 NMatT0=    0 NMatD0=    1 NMtDS0=    0 NMtDT0=    0
 Petite list used in FoFCou.
 Initial guess orbital symmetries:
       Occupied  (A') (A') (A') (A') (A') (A') (A') (A') (A') (A')
                 (A') (A') (A') (A') (A') (A') (A') (A') (A') (A')
                 (A') (A') (A') (A') (A') (A') (A') (A') (A') (A')
                 (A') (A') (A') (A') (A') (A') (A') (A') (A') (A')
                 (A') (A') (A') (A') (A') (A') (A') (A') (A') (A')
                 (A') (A') (A') (A') (A') (A') (A') (A') (A') (A")
                 (A') (A') (A') (A") (A') (A') (A") (A') (A') (A")
                 (A') (A") (A") (A") (A") (A") (A") (A") (A")
       Virtual   (A") (A") (A") (A") (A") (A") (A") (A") (A") (A')
                 (A') (A") (A') (A') (A') (A') (A") (A') (A') (A')
                 (A') (A') (A') (A') (A") (A') (A') (A') (A') (A')
                 (A') (A') (A') (A') (A') (A') (A') (A') (A') (A')
                 (A') (A') (A') (A') (A') (A') (A') (A') (A') (A')
                 (A') (A') (A') (A') (A') (A') (A') (A') (A") (A')
                 (A') (A") (A') (A') (A') (A') (A") (A") (A') (A')
                 (A") (A') (A') (A") (A') (A') (A') (A") (A") (A')
                 (A") (A') (A") (A") (A') (A') (A") (A") (A") (A')
                 (A') (A') (A") (A') (A") (A') (A') (A') (A") (A')
                 (A') (A') (A') (A') (A") (A") (A') (A') (A') (A")
                 (A') (A') (A') (A') (A') (A') (A') (A") (A') (A")
                 (A') (A') (A') (A') (A') (A') (A") (A') (A') (A')
                 (A') (A") (A') (A') (A') (A') (A') (A') (A') (A')
                 (A') (A') (A') (A") (A') (A") (A') (A') (A") (A")
                 (A') (A") (A") (A') (A') (A') (A') (A") (A') (A")
                 (A') (A") (A') (A") (A') (A") (A') (A') (A") (A")
                 (A") (A") (A") (A") (A') (A") (A") (A') (A') (A')
                 (A') (A') (A') (A') (A') (A') (A') (A') (A") (A')
                 (A') (A') (A") (A') (A") (A') (A') (A') (A') (A")
                 (A') (A') (A') (A') (A") (A') (A") (A') (A') (A')
                 (A') (A') (A") (A') (A') (A') (A") (A') (A') (A")
                 (A') (A') (A') (A') (A') (A") (A") (A') (A") (A')
                 (A') (A") (A") (A') (A") (A") (A") (A") (A") (A')
                 (A") (A") (A') (A") (A') (A') (A") (A') (A') (A')
                 (A") (A') (A') (A') (A") (A') (A') (A') (A") (A')
                 (A') (A") (A') (A') (A') (A") (A') (A") (A') (A')
                 (A') (A') (A') (A') (A') (A') (A') (A') (A') (A')
                 (A') (A') (A') (A') (A')
 The electronic state of the initial guess is 1-A'.
 Requested convergence on RMS density matrix=1.00D-08 within 128 cycles.
 Requested convergence on MAX density matrix=1.00D-06.
 Requested convergence on             energy=1.00D-06.
 No special actions if energy rises.
 Integral accuracy reduced to 1.0D-05 until final iterations.
 Initial convergence to 1.0D-05 achieved.  Increase integral accuracy.
 SCF Done:  E(RB3LYP) =  -922.425507100     A.U. after   18 cycles
            NFock= 18  Conv=0.32D-08     -V/T= 2.0089

 **********************************************************************

            Population analysis using the SCF Density.

 **********************************************************************

 Orbital symmetries:
       Occupied  (A') (A') (A') (A') (A') (A') (A') (A') (A') (A')
                 (A') (A') (A') (A') (A') (A') (A') (A') (A') (A')
                 (A') (A') (A') (A') (A') (A') (A') (A') (A') (A')
                 (A') (A') (A') (A') (A') (A') (A') (A') (A') (A')
                 (A') (A') (A') (A') (A') (A') (A') (A') (A') (A')
                 (A') (A') (A') (A') (A') (A") (A') (A') (A') (A')
                 (A') (A") (A') (A') (A") (A') (A") (A') (A') (A')
                 (A") (A') (A") (A") (A") (A") (A") (A") (A")
       Virtual   (A") (A") (A") (A") (A") (A") (A") (A') (A') (A')
                 (A") (A') (A') (A') (A') (A") (A') (A') (A') (A")
                 (A') (A') (A") (A') (A') (A') (A') (A') (A') (A")
                 (A') (A') (A') (A') (A') (A') (A') (A') (A') (A')
                 (A') (A') (A') (A') (A') (A') (A') (A') (A') (A')
                 (A') (A') (A') (A') (A') (A') (A') (A") (A') (A')
                 (A") (A') (A') (A") (A") (A') (A') (A') (A") (A')
                 (A') (A") (A') (A') (A') (A') (A") (A") (A") (A')
                 (A') (A") (A") (A') (A") (A") (A') (A") (A') (A")
                 (A") (A') (A') (A") (A') (A') (A') (A') (A") (A')
                 (A") (A') (A') (A') (A') (A") (A') (A') (A') (A')
                 (A') (A") (A') (A') (A") (A') (A') (A') (A') (A')
                 (A') (A') (A") (A') (A') (A') (A') (A') (A') (A")
                 (A') (A') (A') (A') (A') (A') (A') (A') (A') (A')
                 (A') (A') (A') (A') (A') (A') (A") (A") (A') (A")
                 (A") (A') (A') (A") (A') (A") (A') (A') (A') (A')
                 (A") (A') (A") (A') (A') (A") (A") (A") (A') (A")
                 (A') (A") (A') (A") (A") (A") (A") (A') (A") (A")
                 (A') (A') (A') (A') (A') (A') (A') (A') (A") (A')
                 (A") (A') (A') (A") (A') (A') (A') (A") (A') (A')
                 (A') (A') (A') (A") (A') (A') (A") (A') (A') (A')
                 (A') (A') (A") (A') (A') (A') (A") (A') (A") (A')
                 (A') (A') (A') (A') (A") (A") (A') (A") (A') (A')
                 (A") (A') (A") (A") (A') (A") (A") (A") (A") (A")
                 (A") (A') (A') (A") (A') (A") (A') (A') (A') (A')
                 (A") (A') (A') (A") (A') (A') (A') (A") (A') (A")
                 (A') (A') (A') (A') (A") (A') (A") (A') (A') (A')
                 (A') (A') (A') (A') (A') (A') (A') (A') (A') (A')
                 (A') (A') (A') (A') (A')
 The electronic state is 1-A'.
 Alpha  occ. eigenvalues --  -10.20032 -10.19855 -10.19365 -10.19169 -10.19124
 Alpha  occ. eigenvalues --  -10.19081 -10.19072 -10.19025 -10.19001 -10.18935
 Alpha  occ. eigenvalues --  -10.18808 -10.18753 -10.18641 -10.18616 -10.18595
 Alpha  occ. eigenvalues --  -10.18581 -10.18469 -10.18431 -10.18375 -10.18291
 Alpha  occ. eigenvalues --  -10.18276 -10.18098 -10.17997 -10.17925  -0.90626
 Alpha  occ. eigenvalues --   -0.87923  -0.85709  -0.84032  -0.81705  -0.79207
 Alpha  occ. eigenvalues --   -0.77193  -0.76047  -0.75009  -0.73138  -0.72729
 Alpha  occ. eigenvalues --   -0.68812  -0.65529  -0.64760  -0.63001  -0.62149
 Alpha  occ. eigenvalues --   -0.60629  -0.59662  -0.56607  -0.54674  -0.53261
 Alpha  occ. eigenvalues --   -0.52863  -0.52089  -0.49971  -0.48742  -0.47447
 Alpha  occ. eigenvalues --   -0.47261  -0.45540  -0.44848  -0.44526  -0.44309
 Alpha  occ. eigenvalues --   -0.43227  -0.42613  -0.41531  -0.41135  -0.40864
 Alpha  occ. eigenvalues --   -0.40510  -0.40200  -0.38882  -0.38427  -0.37362
 Alpha  occ. eigenvalues --   -0.37120  -0.35735  -0.35395  -0.34870  -0.32973
 Alpha  occ. eigenvalues --   -0.32789  -0.32375  -0.30634  -0.28022  -0.27294
 Alpha  occ. eigenvalues --   -0.26192  -0.24037  -0.23292  -0.17919
 Alpha virt. eigenvalues --   -0.08678  -0.03749  -0.02998  -0.01197   0.00533
 Alpha virt. eigenvalues --    0.01709   0.04437   0.06484   0.06829   0.07264
 Alpha virt. eigenvalues --    0.08121   0.08223   0.08737   0.10783   0.11043
 Alpha virt. eigenvalues --    0.11418   0.12566   0.13224   0.14226   0.15282
 Alpha virt. eigenvalues --    0.15778   0.17223   0.19905   0.20738   0.21815
 Alpha virt. eigenvalues --    0.22680   0.24278   0.24924   0.25510   0.25778
 Alpha virt. eigenvalues --    0.25876   0.27201   0.27500   0.27809   0.28454
 Alpha virt. eigenvalues --    0.29115   0.30228   0.30611   0.31531   0.31602
 Alpha virt. eigenvalues --    0.32487   0.32998   0.33338   0.33504   0.34546
 Alpha virt. eigenvalues --    0.35418   0.35588   0.35888   0.37028   0.37791
 Alpha virt. eigenvalues --    0.39223   0.39303   0.40413   0.40627   0.42164
 Alpha virt. eigenvalues --    0.42917   0.43979   0.44157   0.44750   0.45395
 Alpha virt. eigenvalues --    0.45634   0.46791   0.47263   0.47327   0.47626
 Alpha virt. eigenvalues --    0.48441   0.48839   0.49180   0.49536   0.49572
 Alpha virt. eigenvalues --    0.49861   0.50242   0.50575   0.50947   0.51418
 Alpha virt. eigenvalues --    0.51910   0.53076   0.53450   0.54175   0.54738
 Alpha virt. eigenvalues --    0.55802   0.55812   0.56543   0.57491   0.59407
 Alpha virt. eigenvalues --    0.60094   0.61342   0.62329   0.62461   0.64810
 Alpha virt. eigenvalues --    0.65470   0.66162   0.66535   0.66861   0.67100
 Alpha virt. eigenvalues --    0.67960   0.68359   0.69217   0.69500   0.69583
 Alpha virt. eigenvalues --    0.70137   0.70225   0.71152   0.71409   0.71755
 Alpha virt. eigenvalues --    0.71843   0.72703   0.74236   0.75020   0.75810
 Alpha virt. eigenvalues --    0.76263   0.76393   0.76775   0.77532   0.78097
 Alpha virt. eigenvalues --    0.78514   0.79256   0.79930   0.80770   0.81987
 Alpha virt. eigenvalues --    0.82589   0.82961   0.83427   0.84324   0.84662
 Alpha virt. eigenvalues --    0.85348   0.86860   0.88122   0.88904   0.89540
 Alpha virt. eigenvalues --    0.90915   0.91484   0.92386   0.94083   0.97287
 Alpha virt. eigenvalues --    0.99404   1.00978   1.05346   1.06298   1.10675
 Alpha virt. eigenvalues --    1.13083   1.15092   1.15831   1.17427   1.18674
 Alpha virt. eigenvalues --    1.19778   1.19978   1.20932   1.21384   1.23777
 Alpha virt. eigenvalues --    1.24847   1.25184   1.26210   1.26436   1.26703
 Alpha virt. eigenvalues --    1.28132   1.29544   1.32100   1.34272   1.35613
 Alpha virt. eigenvalues --    1.35615   1.36156   1.36996   1.37713   1.38657
 Alpha virt. eigenvalues --    1.39192   1.39728   1.41609   1.43578   1.44542
 Alpha virt. eigenvalues --    1.45159   1.45242   1.46366   1.46431   1.47589
 Alpha virt. eigenvalues --    1.48056   1.48298   1.49262   1.49575   1.49796
 Alpha virt. eigenvalues --    1.51246   1.54280   1.55225   1.55762   1.66444
 Alpha virt. eigenvalues --    1.69350   1.72188   1.73182   1.73495   1.75718
 Alpha virt. eigenvalues --    1.76542   1.76761   1.77273   1.78657   1.79816
 Alpha virt. eigenvalues --    1.81698   1.82529   1.84505   1.84693   1.85568
 Alpha virt. eigenvalues --    1.86340   1.87698   1.89334   1.89413   1.90147
 Alpha virt. eigenvalues --    1.91444   1.91936   1.93369   1.96296   1.97098
 Alpha virt. eigenvalues --    2.02484   2.03279   2.04444   2.06319   2.07697
 Alpha virt. eigenvalues --    2.08830   2.08903   2.09652   2.10085   2.10569
 Alpha virt. eigenvalues --    2.13516   2.13971   2.15734   2.18310   2.19831
 Alpha virt. eigenvalues --    2.19919   2.20351   2.21236   2.21439   2.23879
 Alpha virt. eigenvalues --    2.24598   2.25214   2.25879   2.26538   2.26956
 Alpha virt. eigenvalues --    2.27230   2.29422   2.29750   2.32357   2.34956
 Alpha virt. eigenvalues --    2.35673   2.36023   2.38901   2.39677   2.42580
 Alpha virt. eigenvalues --    2.43013   2.43264   2.50358   2.51103   2.52597
 Alpha virt. eigenvalues --    2.52864   2.55725   2.57306   2.59195   2.60205
 Alpha virt. eigenvalues --    2.62618   2.64482   2.65574   2.66435   2.67335
 Alpha virt. eigenvalues --    2.67623   2.68471   2.70177   2.72120   2.74229
 Alpha virt. eigenvalues --    2.75214   2.75461   2.77270   2.78321   2.80138
 Alpha virt. eigenvalues --    2.83672   2.85300   2.87329   2.90453   2.93529
 Alpha virt. eigenvalues --    2.95103   2.99241   3.06025   3.07219   3.26882
 Alpha virt. eigenvalues --    3.34291   3.43304   3.45259   3.61383   3.62534
          Condensed to atoms (all electrons):
               1          2          3          4          5          6
     1  C    5.282099   0.118055   0.173365  -0.178946   0.175550   0.154295
     2  C    0.118055   5.303595   0.152546   0.149547  -0.196150   0.182099
     3  C    0.173365   0.152546   5.547490   0.216277   0.015506  -0.193321
     4  C   -0.178946   0.149547   0.216277   5.811723  -0.045241   0.068590
     5  C    0.175550  -0.196150   0.015506  -0.045241   5.608171   0.172630
     6  C    0.154295   0.182099  -0.193321   0.068590   0.172630   5.529617
     7  C    0.023003  -0.003101   0.027633   0.033796   0.161184  -0.171342
     8  C   -0.001503   0.000137  -0.002738  -0.162056   0.179958   0.020233
     9  C    0.000024  -0.000009   0.000115  -0.001969   0.022634  -0.001203
    10  C   -0.000000   0.000000  -0.000004   0.000153  -0.001608   0.000025
    11  C    0.000000  -0.000000   0.000028  -0.000069  -0.000090  -0.000010
    12  C    0.000000  -0.000000  -0.000000   0.000014  -0.000001  -0.000000
    13  C    0.000000  -0.000000   0.000000  -0.000000   0.000000  -0.000000
    14  C   -0.000000   0.000000  -0.000000  -0.000000   0.000000  -0.000000
    15  C    0.000000   0.000000   0.000000   0.000000  -0.000000  -0.000000
    16  C   -0.000000  -0.000000  -0.000000  -0.000000   0.000000   0.000000
    17  C   -0.000000   0.000000   0.000000  -0.000006  -0.000001   0.000000
    18  C    0.000000  -0.000000  -0.000006   0.000168   0.000006  -0.000000
    19  C   -0.000002   0.000019  -0.000161  -0.004308  -0.000427   0.000006
    20  C    0.000019  -0.000312   0.002133   0.035096   0.000431  -0.000010
    21  C    0.000082   0.000551  -0.030982  -0.169332   0.034054  -0.000751
    22  C   -0.004817   0.033837  -0.153245   0.141850   0.002791   0.031591
    23  C   -0.000212   0.000816   0.027717  -0.004659  -0.185841  -0.000059
    24  C   -0.000008   0.000021  -0.000727   0.034642  -0.004487   0.000207
    25  H    0.446113  -0.091596   0.017705  -0.001704   0.017002  -0.086261
    26  H   -0.092418   0.444567  -0.083048   0.017219  -0.001466   0.017040
    27  H    0.017103  -0.094024   0.430844  -0.038525   0.022936  -0.002753
    28  H   -0.090043   0.017387  -0.002374   0.020400  -0.084336   0.447514
    29  H    0.000784  -0.000050  -0.000330   0.019185  -0.090791  -0.020058
    30  H    0.000000  -0.000000  -0.000001  -0.000027   0.001103  -0.000046
    31  H   -0.000000   0.000000  -0.000000  -0.000003   0.000015  -0.000000
    32  H    0.000000  -0.000000   0.000000   0.000000  -0.000000  -0.000000
    33  H    0.000000  -0.000000   0.000000  -0.000000  -0.000000  -0.000000
    34  H    0.000000  -0.000000  -0.000000   0.000000   0.000000   0.000000
    35  H   -0.000000   0.000000  -0.000000   0.000000   0.000000   0.000000
    36  H    0.000000  -0.000000  -0.000000  -0.000001   0.000000  -0.000000
    37  H    0.000000  -0.000002   0.000016  -0.000692   0.000015  -0.000000
    38  H   -0.000168   0.003179   0.012075  -0.056823  -0.002000   0.000082
               7          8          9         10         11         12
     1  C    0.023003  -0.001503   0.000024  -0.000000   0.000000   0.000000
     2  C   -0.003101   0.000137  -0.000009   0.000000  -0.000000  -0.000000
     3  C    0.027633  -0.002738   0.000115  -0.000004   0.000028  -0.000000
     4  C    0.033796  -0.162056  -0.001969   0.000153  -0.000069   0.000014
     5  C    0.161184   0.179958   0.022634  -0.001608  -0.000090  -0.000001
     6  C   -0.171342   0.020233  -0.001203   0.000025  -0.000010  -0.000000
     7  C    5.869112   0.187369  -0.183844   0.022136  -0.000679   0.000069
     8  C    0.187369   5.633573   0.150470   0.175713  -0.203824  -0.002899
     9  C   -0.183844   0.150470   5.557866   0.149731   0.174167   0.022332
    10  C    0.022136   0.175713   0.149731   5.545780   0.178924  -0.136849
    11  C   -0.000679  -0.203824   0.174167   0.178924   5.730613   0.239551
    12  C    0.000069  -0.002899   0.022332  -0.136849   0.239551   5.671454
    13  C   -0.000003  -0.000125   0.001010  -0.026834  -0.130475   0.211356
    14  C   -0.000000   0.000011  -0.000143   0.000356   0.023428   0.176008
    15  C    0.000000  -0.000001   0.000010   0.000010  -0.003877  -0.198651
    16  C   -0.000000   0.000006  -0.000013  -0.000254   0.025031   0.084347
    17  C    0.000004  -0.000346   0.000469   0.024740   0.014990  -0.057823
    18  C   -0.000001  -0.000394   0.000006  -0.004129  -0.156710   0.027794
    19  C   -0.000348   0.039283  -0.006542   0.033209  -0.056085  -0.149740
    20  C    0.000036  -0.007264   0.000034  -0.000356   0.038836  -0.002317
    21  C   -0.004071   0.034404  -0.000196  -0.000120  -0.006331   0.000308
    22  C   -0.157219  -0.052911   0.034566  -0.006347   0.037865   0.000005
    23  C    0.049655  -0.016776   0.065476  -0.162506  -0.021371   0.027486
    24  C    0.030820  -0.010139  -0.185825   0.022813   0.102229   0.010836
    25  H   -0.000596   0.000011  -0.000000   0.000000  -0.000000   0.000000
    26  H    0.000054  -0.000002   0.000000  -0.000000   0.000000  -0.000000
    27  H   -0.000213  -0.000088   0.000004  -0.000001   0.000002   0.000000
    28  H   -0.024668   0.001115  -0.000051   0.000001  -0.000000  -0.000000
    29  H    0.453210  -0.089408  -0.020976   0.000841  -0.000055  -0.000001
    30  H   -0.024257  -0.084590   0.447911  -0.086980   0.016479  -0.000409
    31  H   -0.000593   0.016066  -0.092661   0.432431  -0.053855  -0.042334
    32  H   -0.000000  -0.000129   0.002129   0.012393  -0.044333  -0.052403
    33  H   -0.000000   0.000000  -0.000001  -0.000002  -0.000434   0.017017
    34  H   -0.000000   0.000000  -0.000000  -0.000000   0.000057  -0.001853
    35  H   -0.000000   0.000000  -0.000000   0.000008  -0.000239   0.020977
    36  H   -0.000000   0.000017  -0.000001   0.000046  -0.002336   0.020710
    37  H   -0.000002   0.000075   0.000001   0.000014  -0.000367  -0.000076
    38  H   -0.000037  -0.000138   0.000006   0.000000   0.000103  -0.000003
              13         14         15         16         17         18
     1  C    0.000000  -0.000000   0.000000  -0.000000  -0.000000   0.000000
     2  C   -0.000000   0.000000   0.000000  -0.000000   0.000000  -0.000000
     3  C    0.000000  -0.000000   0.000000  -0.000000   0.000000  -0.000006
     4  C   -0.000000  -0.000000   0.000000  -0.000000  -0.000006   0.000168
     5  C    0.000000   0.000000  -0.000000   0.000000  -0.000001   0.000006
     6  C   -0.000000  -0.000000  -0.000000   0.000000   0.000000  -0.000000
     7  C   -0.000003  -0.000000   0.000000  -0.000000   0.000004  -0.000001
     8  C   -0.000125   0.000011  -0.000001   0.000006  -0.000346  -0.000394
     9  C    0.001010  -0.000143   0.000010  -0.000013   0.000469   0.000006
    10  C   -0.026834   0.000356   0.000010  -0.000254   0.024740  -0.004129
    11  C   -0.130475   0.023428  -0.003877   0.025031   0.014990  -0.156710
    12  C    0.211356   0.176008  -0.198651   0.084347  -0.057823   0.027794
    13  C    5.512665   0.152391   0.186891  -0.203939   0.041243   0.030290
    14  C    0.152391   5.319525   0.089941   0.201769  -0.213458  -0.003236
    15  C    0.186891   0.089941   5.318491   0.111984   0.200262   0.029034
    16  C   -0.203939   0.201769   0.111984   5.588163   0.137183  -0.181979
    17  C    0.041243  -0.213458   0.200262   0.137183   5.650761   0.061159
    18  C    0.030290  -0.003236   0.029034  -0.181979   0.061159   6.084885
    19  C   -0.003081   0.000146  -0.001966   0.023597   0.207968   0.135496
    20  C    0.000147  -0.000012   0.000043  -0.001872   0.031967  -0.213084
    21  C   -0.000006   0.000000  -0.000000   0.000040  -0.002715   0.030022
    22  C    0.000022  -0.000000   0.000000  -0.000011  -0.000024  -0.001040
    23  C   -0.000318   0.000006  -0.000006   0.000165  -0.004760   0.034632
    24  C    0.020617   0.000735  -0.000144  -0.000551  -0.175356   0.050972
    25  H    0.000000  -0.000000   0.000000   0.000000   0.000000  -0.000000
    26  H    0.000000  -0.000000  -0.000000  -0.000000  -0.000000  -0.000000
    27  H    0.000000  -0.000000   0.000000  -0.000000  -0.000000   0.000002
    28  H   -0.000000   0.000000  -0.000000   0.000000   0.000000  -0.000000
    29  H   -0.000000  -0.000000   0.000000  -0.000000   0.000000  -0.000000
    30  H    0.000004  -0.000001   0.000000  -0.000000   0.000009  -0.000001
    31  H    0.011187   0.001859  -0.000111   0.000084  -0.001917  -0.000028
    32  H    0.430887  -0.094552   0.017125  -0.002855   0.024126  -0.000304
    33  H   -0.084894   0.445679  -0.092540   0.018568  -0.001612   0.000055
    34  H    0.018020  -0.096519   0.451693  -0.091189   0.019002  -0.000771
    35  H   -0.002876   0.019485  -0.097178   0.457612  -0.089973  -0.027974
    36  H   -0.000465  -0.000039   0.001149  -0.022008  -0.102823   0.467315
    37  H    0.000001  -0.000000   0.000002  -0.000087   0.002185  -0.028357
    38  H   -0.000000   0.000000  -0.000000  -0.000000   0.000024  -0.000918
              19         20         21         22         23         24
     1  C   -0.000002   0.000019   0.000082  -0.004817  -0.000212  -0.000008
     2  C    0.000019  -0.000312   0.000551   0.033837   0.000816   0.000021
     3  C   -0.000161   0.002133  -0.030982  -0.153245   0.027717  -0.000727
     4  C   -0.004308   0.035096  -0.169332   0.141850  -0.004659   0.034642
     5  C   -0.000427   0.000431   0.034054   0.002791  -0.185841  -0.004487
     6  C    0.000006  -0.000010  -0.000751   0.031591  -0.000059   0.000207
     7  C   -0.000348   0.000036  -0.004071  -0.157219   0.049655   0.030820
     8  C    0.039283  -0.007264   0.034404  -0.052911  -0.016776  -0.010139
     9  C   -0.006542   0.000034  -0.000196   0.034566   0.065476  -0.185825
    10  C    0.033209  -0.000356  -0.000120  -0.006347  -0.162506   0.022813
    11  C   -0.056085   0.038836  -0.006331   0.037865  -0.021371   0.102229
    12  C   -0.149740  -0.002317   0.000308   0.000005   0.027486   0.010836
    13  C   -0.003081   0.000147  -0.000006   0.000022  -0.000318   0.020617
    14  C    0.000146  -0.000012   0.000000  -0.000000   0.000006   0.000735
    15  C   -0.001966   0.000043  -0.000000   0.000000  -0.000006  -0.000144
    16  C    0.023597  -0.001872   0.000040  -0.000011   0.000165  -0.000551
    17  C    0.207968   0.031967  -0.002715  -0.000024  -0.004760  -0.175356
    18  C    0.135496  -0.213084   0.030022  -0.001040   0.034632   0.050972
    19  C    5.680296   0.066578   0.215142  -0.216923   0.005590  -0.057109
    20  C    0.066578   5.753510   0.053332   0.188317  -0.201895   0.077784
    21  C    0.215142   0.053332   5.705517   0.117720   0.017784  -0.181505
    22  C   -0.216923   0.188317   0.117720   5.872981   0.103162  -0.005500
    23  C    0.005590  -0.201895   0.017784   0.103162   6.053079   0.073607
    24  C   -0.057109   0.077784  -0.181505  -0.005500   0.073607   6.046010
    25  H    0.000000  -0.000000  -0.000001   0.000073  -0.000000   0.000000
    26  H    0.000000  -0.000003   0.000008  -0.000638   0.000014  -0.000000
    27  H   -0.000206   0.004379   0.014411  -0.061922  -0.002843   0.000040
    28  H    0.000000  -0.000000   0.000012  -0.000341  -0.000024   0.000000
    29  H    0.000017  -0.000001   0.000050  -0.002473   0.019890  -0.000377
    30  H    0.000058   0.000001   0.000012  -0.000328   0.019338  -0.001859
    31  H   -0.000194   0.000005   0.000001   0.000080  -0.002217   0.023208
    32  H   -0.000075   0.000004  -0.000000   0.000002   0.000058  -0.002373
    33  H   -0.000003   0.000000   0.000000   0.000000  -0.000000   0.000010
    34  H    0.000014  -0.000000  -0.000000  -0.000000   0.000000  -0.000001
    35  H    0.001458  -0.000077   0.000001  -0.000000   0.000001  -0.000037
    36  H   -0.099053  -0.026003   0.001881  -0.000094  -0.000334   0.020826
    37  H   -0.101521   0.465243  -0.096270   0.019453  -0.001971   0.020541
    38  H    0.019500  -0.097075   0.441227  -0.051798   0.022487  -0.002344
              25         26         27         28         29         30
     1  C    0.446113  -0.092418   0.017103  -0.090043   0.000784   0.000000
     2  C   -0.091596   0.444567  -0.094024   0.017387  -0.000050  -0.000000
     3  C    0.017705  -0.083048   0.430844  -0.002374  -0.000330  -0.000001
     4  C   -0.001704   0.017219  -0.038525   0.020400   0.019185  -0.000027
     5  C    0.017002  -0.001466   0.022936  -0.084336  -0.090791   0.001103
     6  C   -0.086261   0.017040  -0.002753   0.447514  -0.020058  -0.000046
     7  C   -0.000596   0.000054  -0.000213  -0.024668   0.453210  -0.024257
     8  C    0.000011  -0.000002  -0.000088   0.001115  -0.089408  -0.084590
     9  C   -0.000000   0.000000   0.000004  -0.000051  -0.020976   0.447911
    10  C    0.000000  -0.000000  -0.000001   0.000001   0.000841  -0.086980
    11  C   -0.000000   0.000000   0.000002  -0.000000  -0.000055   0.016479
    12  C    0.000000  -0.000000   0.000000  -0.000000  -0.000001  -0.000409
    13  C    0.000000   0.000000   0.000000  -0.000000  -0.000000   0.000004
    14  C   -0.000000  -0.000000  -0.000000   0.000000  -0.000000  -0.000001
    15  C    0.000000  -0.000000   0.000000  -0.000000   0.000000   0.000000
    16  C    0.000000  -0.000000  -0.000000   0.000000  -0.000000  -0.000000
    17  C    0.000000  -0.000000  -0.000000   0.000000   0.000000   0.000009
    18  C   -0.000000  -0.000000   0.000002  -0.000000  -0.000000  -0.000001
    19  C    0.000000   0.000000  -0.000206   0.000000   0.000017   0.000058
    20  C   -0.000000  -0.000003   0.004379  -0.000000  -0.000001   0.000001
    21  C   -0.000001   0.000008   0.014411   0.000012   0.000050   0.000012
    22  C    0.000073  -0.000638  -0.061922  -0.000341  -0.002473  -0.000328
    23  C   -0.000000   0.000014  -0.002843  -0.000024   0.019890   0.019338
    24  C    0.000000  -0.000000   0.000040   0.000000  -0.000377  -0.001859
    25  H    0.685856  -0.015360  -0.000348  -0.012584  -0.000013  -0.000000
    26  H   -0.015360   0.688813  -0.013004  -0.000337  -0.000001   0.000000
    27  H   -0.000348  -0.013004   0.698648   0.000026   0.000011   0.000000
    28  H   -0.012584  -0.000337   0.000026   0.690897   0.007074   0.000001
    29  H   -0.000013  -0.000001   0.000011   0.007074   0.698780   0.007036
    30  H   -0.000000   0.000000   0.000000   0.000001   0.007036   0.688747
    31  H   -0.000000   0.000000   0.000000  -0.000000  -0.000022  -0.012144
    32  H   -0.000000   0.000000   0.000000  -0.000000   0.000000   0.000050
    33  H   -0.000000   0.000000   0.000000   0.000000   0.000000  -0.000000
    34  H   -0.000000  -0.000000  -0.000000   0.000000  -0.000000  -0.000000
    35  H    0.000000   0.000000  -0.000000   0.000000   0.000000   0.000000
    36  H   -0.000000  -0.000000   0.000001   0.000000   0.000000   0.000000
    37  H   -0.000000  -0.000000   0.000101   0.000000   0.000000   0.000000
    38  H    0.000000   0.000099  -0.008221   0.000001   0.000000  -0.000000
              31         32         33         34         35         36
     1  C   -0.000000   0.000000   0.000000   0.000000  -0.000000   0.000000
     2  C    0.000000  -0.000000  -0.000000  -0.000000   0.000000  -0.000000
     3  C   -0.000000   0.000000   0.000000  -0.000000  -0.000000  -0.000000
     4  C   -0.000003   0.000000  -0.000000   0.000000   0.000000  -0.000001
     5  C    0.000015  -0.000000  -0.000000   0.000000   0.000000   0.000000
     6  C   -0.000000  -0.000000  -0.000000   0.000000   0.000000  -0.000000
     7  C   -0.000593  -0.000000  -0.000000  -0.000000  -0.000000  -0.000000
     8  C    0.016066  -0.000129   0.000000   0.000000   0.000000   0.000017
     9  C   -0.092661   0.002129  -0.000001  -0.000000  -0.000000  -0.000001
    10  C    0.432431   0.012393  -0.000002  -0.000000   0.000008   0.000046
    11  C   -0.053855  -0.044333  -0.000434   0.000057  -0.000239  -0.002336
    12  C   -0.042334  -0.052403   0.017017  -0.001853   0.020977   0.020710
    13  C    0.011187   0.430887  -0.084894   0.018020  -0.002876  -0.000465
    14  C    0.001859  -0.094552   0.445679  -0.096519   0.019485  -0.000039
    15  C   -0.000111   0.017125  -0.092540   0.451693  -0.097178   0.001149
    16  C    0.000084  -0.002855   0.018568  -0.091189   0.457612  -0.022008
    17  C   -0.001917   0.024126  -0.001612   0.019002  -0.089973  -0.102823
    18  C   -0.000028  -0.000304   0.000055  -0.000771  -0.027974   0.467315
    19  C   -0.000194  -0.000075  -0.000003   0.000014   0.001458  -0.099053
    20  C    0.000005   0.000004   0.000000  -0.000000  -0.000077  -0.026003
    21  C    0.000001  -0.000000   0.000000  -0.000000   0.000001   0.001881
    22  C    0.000080   0.000002   0.000000  -0.000000  -0.000000  -0.000094
    23  C   -0.002217   0.000058  -0.000000   0.000000   0.000001  -0.000334
    24  C    0.023208  -0.002373   0.000010  -0.000001  -0.000037   0.020826
    25  H   -0.000000  -0.000000  -0.000000  -0.000000   0.000000  -0.000000
    26  H    0.000000   0.000000   0.000000  -0.000000   0.000000  -0.000000
    27  H    0.000000   0.000000   0.000000  -0.000000  -0.000000   0.000001
    28  H   -0.000000  -0.000000   0.000000   0.000000   0.000000   0.000000
    29  H   -0.000022   0.000000   0.000000  -0.000000   0.000000   0.000000
    30  H   -0.012144   0.000050  -0.000000  -0.000000   0.000000   0.000000
    31  H    0.692431  -0.002789   0.000048  -0.000000   0.000001   0.000000
    32  H   -0.002789   0.694500  -0.012539  -0.000338   0.000030   0.000013
    33  H    0.000048  -0.012539   0.686461  -0.015429  -0.000377  -0.000001
    34  H   -0.000000  -0.000338  -0.015429   0.694103  -0.014838  -0.000026
    35  H    0.000001   0.000030  -0.000377  -0.014838   0.697864   0.007942
    36  H    0.000000   0.000013  -0.000001  -0.000026   0.007942   0.712288
    37  H   -0.000000   0.000000   0.000000  -0.000000  -0.000000   0.007772
    38  H    0.000000   0.000000   0.000000  -0.000000  -0.000000  -0.000047
              37         38
     1  C    0.000000  -0.000168
     2  C   -0.000002   0.003179
     3  C    0.000016   0.012075
     4  C   -0.000692  -0.056823
     5  C    0.000015  -0.002000
     6  C   -0.000000   0.000082
     7  C   -0.000002  -0.000037
     8  C    0.000075  -0.000138
     9  C    0.000001   0.000006
    10  C    0.000014   0.000000
    11  C   -0.000367   0.000103
    12  C   -0.000076  -0.000003
    13  C    0.000001  -0.000000
    14  C   -0.000000   0.000000
    15  C    0.000002  -0.000000
    16  C   -0.000087  -0.000000
    17  C    0.002185   0.000024
    18  C   -0.028357  -0.000918
    19  C   -0.101521   0.019500
    20  C    0.465243  -0.097075
    21  C   -0.096270   0.441227
    22  C    0.019453  -0.051798
    23  C   -0.001971   0.022487
    24  C    0.020541  -0.002344
    25  H   -0.000000   0.000000
    26  H   -0.000000   0.000099
    27  H    0.000101  -0.008221
    28  H    0.000000   0.000001
    29  H    0.000000   0.000000
    30  H    0.000000  -0.000000
    31  H   -0.000000   0.000000
    32  H    0.000000   0.000000
    33  H    0.000000   0.000000
    34  H   -0.000000  -0.000000
    35  H   -0.000000  -0.000000
    36  H    0.007772  -0.000047
    37  H    0.706853  -0.014816
    38  H   -0.014816   0.707290
 Mulliken charges:
               1
     1  C   -0.022376
     2  C   -0.021113
     3  C   -0.156513
     4  C    0.115701
     5  C    0.198453
     6  C   -0.148113
     7  C   -0.287107
     8  C    0.196887
     9  C   -0.135526
    10  C   -0.173333
    11  C    0.098842
    12  C    0.115095
    13  C   -0.163714
    14  C   -0.023377
    15  C   -0.012161
    16  C   -0.143791
    17  C    0.234719
    18  C   -0.332903
    19  C    0.269369
    20  C   -0.167613
    21  C   -0.174275
    22  C    0.131318
    23  C    0.084829
    24  C    0.092427
    25  H    0.041702
    26  H    0.038464
    27  H    0.033642
    28  H    0.030332
    29  H    0.017677
    30  H    0.029894
    31  H    0.031452
    32  H    0.031371
    33  H    0.039993
    34  H    0.038075
    35  H    0.028189
    36  H    0.013272
    37  H    0.021893
    38  H    0.028317
 Sum of Mulliken charges =  -0.00000
 Mulliken charges with hydrogens summed into heavy atoms:
               1
     1  C    0.019326
     2  C    0.017351
     3  C   -0.122872
     4  C    0.115701
     5  C    0.198453
     6  C   -0.117781
     7  C   -0.269430
     8  C    0.196887
     9  C   -0.105631
    10  C   -0.141881
    11  C    0.098842
    12  C    0.115095
    13  C   -0.132342
    14  C    0.016616
    15  C    0.025914
    16  C   -0.115602
    17  C    0.234719
    18  C   -0.319631
    19  C    0.269369
    20  C   -0.145720
    21  C   -0.145957
    22  C    0.131318
    23  C    0.084829
    24  C    0.092427
 Electronic spatial extent (au):  <R**2>=           8276.9717
 Charge=             -0.0000 electrons
 Dipole moment (field-independent basis, Debye):
    X=             -0.0625    Y=              0.0869    Z=              0.0000  Tot=              0.1071
 Quadrupole moment (field-independent basis, Debye-Ang):
   XX=           -120.7220   YY=           -120.7042   ZZ=           -144.7064
   XY=              0.1549   XZ=             -0.0000   YZ=              0.0000
 Traceless Quadrupole moment (field-independent basis, Debye-Ang):
   XX=              7.9889   YY=              8.0067   ZZ=            -15.9956
   XY=              0.1549   XZ=             -0.0000   YZ=              0.0000
 Octapole moment (field-independent basis, Debye-Ang**2):
  XXX=              0.1789  YYY=              3.7787  ZZZ=             -0.0000  XYY=             -0.4197
  XXY=             -0.5155  XXZ=              0.0000  XZZ=             -0.8010  YZZ=              0.5742
  YYZ=             -0.0000  XYZ=              0.0000
 Hexadecapole moment (field-independent basis, Debye-Ang**3):
 XXXX=          -1996.6704 YYYY=          -8492.7585 ZZZZ=           -158.9733 XXXY=           -558.1957
 XXXZ=              0.0000 YYYX=           -538.2191 YYYZ=              0.0000 ZZZX=              0.0000
 ZZZY=              0.0000 XXYY=          -1745.9146 XXZZ=           -423.0172 YYZZ=          -1727.4747
 XXYZ=              0.0000 YYXZ=              0.0000 ZZXY=           -223.5032
 N-N= 1.799363543835D+03 E-N=-5.733971946089D+03  KE= 9.142526707141D+02
 Symmetry A'   KE= 8.884136625372D+02
 Symmetry A"   KE= 2.583900817691D+01
   2 Symmetry operations used in ECPInt.
 ECPInt:  NShTT=   14878 NPrTT=   59694 LenC2=   13457 LenP2D=   36545.
 LDataN:  DoStor=T MaxTD1= 5 Len=  102
 Calling FoFJK, ICntrl=      2127 FMM=F ISym2X=1 I1Cent= 0 IOpClX= 0 NMat=1 NMatS=1 NMatT=0.
 ***** Axes restored to original set *****
 -------------------------------------------------------------------
 Center     Atomic                   Forces (Hartrees/Bohr)
 Number     Number              X              Y              Z
 -------------------------------------------------------------------
      1        6          -0.010896105   -0.056202238   -0.000000000
      2        6          -0.040237179    0.039307001   -0.000000000
      3        6           0.037149527   -0.013644137    0.000000000
      4        6           0.006214180    0.021508926    0.000000000
      5        6           0.002559555   -0.029880074    0.000000000
      6        6           0.027772553    0.028020190    0.000000000
      7        6          -0.014745153    0.017475801   -0.000000000
[...]
 2,0.00085085,0.,-0.00010070,0.00006187,0.,-0.00011475,0.00017700,0.,0.
 00002378,-0.00020240,0.,-0.00001131,0.00006330,0.,-0.00149229,-0.00038
 730,0.,0.00035640,-0.00036762,0.,-0.00001182,0.00005839,0.,-0.00009677
 ,0.00002332,0.,0.00075937,0.00009153,0.,0.00364630,-0.00401747,0.,0.00
 000113,0.00000293,0.,-0.00000422,-0.00000128,0.,0.00000872,0.00000707,
 0.,-0.00000273,0.00000282,0.,-0.00000640,-0.00000923,0.,-0.00012676,0.
 00101995,0.,0.15150450,0.21919630,0.,0.,0.00011191,0.,0.,-0.00002227,0
 .,0.,0.00007365,0.,0.,0.00010571,0.,0.,-0.00097670,0.,0.,-0.00005656,0
 .,0.,0.00012881,0.,0.,0.00965067,0.,0.,0.00567815,0.,0.,-0.03881182,0.
 ,0.,0.00349579,0.,0.,-0.00212328,0.,0.,0.00007762,0.,0.,-0.00027711,0.
 ,0.,0.00002021,0.,0.,0.00001454,0.,0.,-0.00003187,0.,0.,-0.00011920,0.
 ,0.,0.00034832,0.,0.,-0.00016738,0.,0.,0.00007355,0.,0.,-0.00068788,0.
 ,0.,-0.00015656,0.,0.,0.00361877,0.,0.,0.00000686,0.,0.,-0.00001351,0.
 ,0.,-0.00000347,0.,0.,-0.00002410,0.,0.,0.00029372,0.,0.,-0.00591710,0
 .,0.,0.02433473,0.00000954,0.00001836,0.,0.00001867,-0.00000641,0.,-0.
 00000505,-0.00002058,0.,0.00003579,0.00002730,0.,0.00003605,0.00001541
 ,0.,-0.00001754,0.00001558,0.,-0.00004513,0.00009203,0.,0.00005593,-0.
 00006996,0.,0.00001340,0.00037412,0.,-0.00301876,-0.00110702,0.,0.0005
 1875,0.00104989,0.,0.01047813,-0.02138789,0.,-0.07002808,0.05772471,0.
 ,-0.00330728,0.03170645,0.,-0.00513780,0.00033117,0.,-0.00076761,-0.00
 044065,0.,-0.00348257,-0.00236816,0.,0.00067341,-0.00099612,0.,0.00016
 035,-0.00001001,0.,-0.00004955,0.00005727,0.,0.00000838,-0.00006294,0.
 ,-0.00001166,-0.00002246,0.,0.00005936,0.00008143,0.,0.00008962,0.0000
 8338,0.,0.00000491,0.00000051,0.,0.00000374,0.00000237,0.,0.00000020,0
 .00000596,0.,-0.00000169,-0.00000335,0.,-0.00000429,-0.00000082,0.,0.0
 0001866,0.00001197,0.,-0.00341761,0.00123593,0.,0.07635750,-0.00000125
 ,-0.00001173,0.,-0.00001222,0.00000457,0.,0.00000530,0.00000553,0.,-0.
 00001124,0.00004378,0.,0.00001375,-0.00002119,0.,0.00001318,0.00000301
 ,0.,0.00003870,0.00013812,0.,0.00007392,-0.00007429,0.,0.00020822,0.00
 085134,0.,0.00165103,-0.00089032,0.,0.00163543,-0.00093952,0.,0.006109
 08,-0.01656621,0.,0.05837448,-0.32711455,0.,-0.00048243,-0.00555479,0.
 ,0.00180565,0.00149874,0.,-0.00043081,0.00071027,0.,-0.00387092,-0.000
 44052,0.,0.00080841,-0.00068878,0.,0.00002830,0.00005106,0.,-0.0000037
 6,0.00013373,0.,-0.00006065,-0.00005208,0.,-0.00001028,-0.00007243,0.,
 0.00013507,-0.00007590,0.,-0.00022063,0.00004641,0.,-0.00000211,0.0000
 0145,0.,-0.00000181,-0.00000051,0.,0.00000596,0.00000528,0.,-0.0000029
 7,0.00000362,0.,-0.00001226,0.00000172,0.,-0.00003436,-0.00001317,0.,0
 .00159337,0.00161640,0.,-0.06721628,0.34700887,0.,0.,-0.00000081,0.,0.
 ,-0.00000011,0.,0.,0.00000199,0.,0.,-0.00000723,0.,0.,-0.00000473,0.,0
 .,-0.00001528,0.,0.,0.00005281,0.,0.,0.00000759,0.,0.,-0.00024596,0.,0
 .,-0.00001422,0.,0.,-0.00279137,0.,0.,0.00363088,0.,0.,-0.03779837,0.,
 0.,0.00513727,0.,0.,0.00817325,0.,0.,-0.00053958,0.,0.,0.00503678,0.,0
 .,0.00025607,0.,0.,-0.00031640,0.,0.,0.00005380,0.,0.,-0.00001622,0.,0
 .,0.00001292,0.,0.,0.00013638,0.,0.,-0.00005428,0.,0.,0.00000371,0.,0.
 ,0.00000002,0.,0.,0.00000076,0.,0.,0.00000137,0.,0.,0.00000425,0.,0.,0
 .00001275,0.,0.,0.00122432,0.,0.,0.02414843,-0.00001290,-0.00001989,0.
 ,-0.00002186,0.00001049,0.,0.00000631,0.00002376,0.,-0.00003739,-0.000
 00328,0.,-0.00003008,-0.00002043,0.,0.00002138,-0.00001371,0.,0.000053
 38,-0.00000172,0.,-0.00005544,0.00000334,0.,0.00005092,0.00006215,0.,-
 0.00006358,-0.00004572,0.,-0.00008596,-0.00137006,0.,-0.00395875,0.003
 35683,0.,-0.01723701,-0.02285503,0.,-0.20089929,-0.13880451,0.,0.00904
 999,0.00763833,0.,0.00052534,0.00179584,0.,-0.00017545,0.00064899,0.,0
 .00029891,0.00004060,0.,-0.00013027,0.00011873,0.,0.00006882,0.0000391
 7,0.,-0.00005428,0.00004620,0.,-0.00001898,-0.00001783,0.,-0.00000117,
 -0.00015663,0.,-0.00045249,0.00014120,0.,-0.00000554,0.00000033,0.,-0.
 00000478,-0.00000238,0.,0.00000374,-0.00000181,0.,-0.00000098,0.000005
 56,0.,-0.00000529,0.00000726,0.,-0.00002560,0.00001281,0.,0.00002657,0
 .00001323,0.,0.00115696,0.00011319,0.,0.21108257,-0.00000069,0.0000156
 0,0.,0.00000649,-0.00001268,0.,-0.00001755,0.00000064,0.,0.00004240,-0
 .00000840,0.,0.00002186,0.00003971,0.,-0.00001494,-0.00001258,0.,-0.00
 005540,-0.00001180,0.,0.00003343,0.00001172,0.,-0.00005035,-0.00002967
 ,0.,0.00001930,-0.00002532,0.,0.00000636,0.00040958,0.,0.00235375,0.00
 022580,0.,0.00836421,0.00949825,0.,-0.13948037,-0.19483793,0.,-0.02382
 963,-0.01546626,0.,0.00313413,-0.00470494,0.,0.00101138,0.00007583,0.,
 -0.00024114,0.00003521,0.,0.00011826,-0.00008441,0.,-0.00004067,0.0000
 1551,0.,0.00002028,-0.00003895,0.,-0.00002716,0.00003101,0.,0.00001389
 ,0.00004525,0.,0.00012284,0.00010019,0.,-0.00000341,0.00000079,0.,-0.0
 0000238,-0.00000213,0.,0.00000237,-0.00000051,0.,-0.00000017,0.0000030
 1,0.,-0.00000120,0.00000281,0.,-0.00000132,0.00000287,0.,-0.00001866,-
 0.00001579,0.,-0.00027872,0.00102618,0.,0.14955053,0.20319227,0.,0.,0.
 00000355,0.,0.,-0.00000166,0.,0.,0.00002491,0.,0.,0.00000341,0.,0.,-0.
 00002603,0.,0.,-0.00000236,0.,0.,0.00000479,0.,0.,0.00007948,0.,0.,-0.
 00004436,0.,0.,0.00023323,0.,0.,0.00031690,0.,0.,0.00861172,0.,0.,0.00
 411882,0.,0.,-0.03726992,0.,0.,0.00330270,0.,0.,0.00496192,0.,0.,-0.00
 059400,0.,0.,-0.00070321,0.,0.,0.00009755,0.,0.,0.00009583,0.,0.,-0.00
 002835,0.,0.,0.00002320,0.,0.,-0.00006204,0.,0.,-0.00072846,0.,0.,0.00
 000085,0.,0.,-0.00000444,0.,0.,0.00000002,0.,0.,0.00000035,0.,0.,0.000
 00588,0.,0.,-0.00002362,0.,0.,0.00001320,0.,0.,-0.00526828,0.,0.,0.025
 48234,-0.00000293,-0.00001397,0.,-0.00002199,-0.00000372,0.,0.00000167
 ,0.00002028,0.,-0.00002081,0.00000956,0.,0.00000135,0.00000162,0.,0.00
 000864,-0.00001749,0.,0.00001809,0.00000018,0.,-0.00004443,0.00002852,
 0.,0.00003633,0.00002341,0.,-0.00004994,0.00001365,0.,0.00014438,0.000
 01396,0.,0.00049942,-0.00036009,0.,0.00145777,0.00142056,0.,-0.0033584
 8,-0.00104999,0.,-0.31712553,0.07163150,0.,-0.01727616,0.00884137,0.,-
 0.00054586,-0.00389505,0.,-0.00062834,0.00083871,0.,-0.00023343,-0.000
 31608,0.,-0.00003291,0.00013596,0.,-0.00006223,-0.00004549,0.,0.000011
 84,-0.00004645,0.,0.00002509,-0.00000763,0.,0.00001177,-0.00007982,0.,
 -0.00000733,0.00000113,0.,-0.00000554,-0.00000341,0.,0.00000491,-0.000
 00211,0.,0.00000054,0.00000544,0.,-0.00000099,0.00000458,0.,-0.0000112
 4,0.00000642,0.,0.00000712,-0.00001958,0.,-0.00026524,-0.00007788,0.,0
 .00067684,0.00028332,0.,0.33565865,-0.00000603,-0.00002045,0.,-0.00001
 268,0.00001962,0.,0.00002146,0.00000591,0.,-0.00004803,0.00002218,0.,-
 0.00002953,-0.00004361,0.,0.00002023,0.00000738,0.,0.00006054,0.000024
 70,0.,-0.00004782,-0.00001516,0.,0.00004921,0.00007894,0.,-0.00006433,
 -0.00006333,0.,0.00033219,0.00012612,0.,-0.00080817,-0.00068818,0.,0.0
 0012996,-0.00541750,0.,0.03037046,-0.00279662,0.,0.07219978,-0.0790920
 7,0.,-0.02264763,0.01026300,0.,-0.00277486,-0.00316112,0.,-0.00050766,
 0.00078369,0.,-0.00036225,-0.00014740,0.,0.00000474,0.00009413,0.,-0.0
 0007147,0.00003099,0.,0.00004780,-0.00006779,0.,0.00003866,0.00000906,
 0.,-0.00002158,-0.00020619,0.,0.00000113,-0.00000025,0.,0.00000033,0.0
 0000079,0.,0.00000051,0.00000145,0.,-0.00000053,-0.00000051,0.,-0.0000
 0109,-0.00000012,0.,0.00000048,-0.00000128,0.,-0.00000978,0.00009578,0
 .,0.00134883,-0.00033535,0.,-0.00066242,0.00132209,0.,-0.07715375,0.07
 819048,0.,0.,-0.00000133,0.,0.,-0.00000380,0.,0.,-0.00000032,0.,0.,-0.
 00000688,0.,0.,0.00000145,0.,0.,-0.00000534,0.,0.,0.00001467,0.,0.,-0.
 00000755,0.,0.,-0.00004603,0.,0.,0.00003369,0.,0.,-0.00075525,0.,0.,-0
 .00047099,0.,0.,0.00504391,0.,0.,0.00316245,0.,0.,-0.03802883,0.,0.,0.
 00432575,0.,0.,0.00894152,0.,0.,0.00020328,0.,0.,-0.00071958,0.,0.,-0.
 00006124,0.,0.,0.00006652,0.,0.,-0.00001514,0.,0.,0.00007137,0.,0.,0.0
 0008187,0.,0.,0.00000238,0.,0.,0.00000085,0.,0.,0.00000371,0.,0.,0.000
 00077,0.,0.,0.00000178,0.,0.,-0.00000016,0.,0.,0.00004733,0.,0.,0.0001
 5570,0.,0.,-0.00286239,0.,0.,0.02580701,-0.00000977,0.00000502,0.,0.00
 000527,0.00000312,0.,-0.00000651,0.00000584,0.,0.00001168,-0.00002626,
 0.,-0.00001327,0.00000589,0.,0.00000103,-0.00000419,0.,-0.00000527,-0.
 00002542,0.,0.00004443,-0.00001028,0.,-0.00000319,0.00014050,0.,-0.000
 43173,-0.00009991,0.,0.00013804,0.00155249,0.,-0.00500902,-0.00037530,
 0.,-0.00079514,-0.00042174,0.,-0.00292535,-0.00253486,0.,0.00949254,-0
 .02353888,0.,-0.07378412,0.06384367,0.,-0.00355203,0.02916853,0.,0.001
 21671,0.00198681,0.,0.00017490,-0.00043088,0.,-0.00002001,0.00001969,0
 .,0.00000495,0.00002818,0.,-0.00003852,0.00004847,0.,0.00000473,-0.000
 12605,0.,0.00017416,0.00015135,0.,0.00000054,-0.00000053,0.,-0.0000009
 8,-0.00000017,0.,-0.00000169,-0.00000297,0.,0.,-0.00000004,0.,0.000001
 85,0.00000013,0.,-0.00004542,0.00001282,0.,0.00001686,0.00001103,0.,0.
 00008370,0.00004708,0.,0.00028338,-0.00108762,0.,0.00111792,0.00058983
 ,0.,0.07430939,0.00001456,0.00001558,0.,0.00001941,-0.00001046,0.,-0.0
 0000695,-0.00002508,0.,0.00002973,-0.00000137,0.,0.00002232,0.00001231
 ,0.,-0.00001544,0.00001628,0.,-0.00003218,0.00001253,0.,0.00003468,-0.
 00000216,0.,-0.00004200,-0.00005869,0.,0.00017480,0.00002940,0.,-0.000
 44323,-0.00039225,0.,0.00131746,0.00136720,0.,-0.00022506,0.00072927,0
 .,-0.00418446,-0.00070039,0.,0.00811598,-0.01675409,0.,0.06389975,-0.3
 1867419,0.,0.00001096,-0.00565886,0.,-0.00208486,0.00057739,0.,0.00040
 165,0.00023032,0.,-0.00005071,-0.00011737,0.,0.00007668,-0.00003510,0.
 ,-0.00000270,0.00003701,0.,-0.00003019,0.00007301,0.,-0.00006825,0.000
 21251,0.,0.00000544,-0.00000051,0.,0.00000556,0.00000301,0.,-0.0000033
 5,0.00000362,0.,-0.00000004,-0.00000472,0.,-0.00000034,-0.00000559,0.,
 0.00002213,-0.00000851,0.,-0.00001861,0.00000977,0.,0.00004544,-0.0000
 9670,0.,0.00041066,-0.00084498,0.,-0.00012158,0.00100781,0.,-0.0678463
 7,0.33848370,0.,0.,0.00000002,0.,0.,-0.00000108,0.,0.,-0.00000106,0.,0
 .,0.00000194,0.,0.,-0.00000032,0.,0.,-0.00000070,0.,0.,-0.00000176,0.,
 0.,0.00000850,0.,0.,0.00001649,0.,0.,0.00021232,0.,0.,0.00022137,0.,0.
 ,0.00468208,0.,0.,-0.00050604,0.,0.,0.00807385,0.,0.,0.00487200,0.,0.,
 -0.03746508,0.,0.,0.00368498,0.,0.,-0.00299525,0.,0.,-0.00012942,0.,0.
 ,0.00018553,0.,0.,-0.00000636,0.,0.,0.00000395,0.,0.,0.00005093,0.,0.,
 -0.00019208,0.,0.,0.00000077,0.,0.,0.00000035,0.,0.,0.00000137,0.,0.,0
 .00000061,0.,0.,-0.00000456,0.,0.,-0.00004892,0.,0.,0.00000557,0.,0.,-
 0.00112766,0.,0.,0.00020513,0.,0.,-0.00517920,0.,0.,0.02526163,-0.0000
 1285,0.00004044,0.,0.00002889,-0.00002857,0.,-0.00006144,0.00002473,0.
 ,0.00009838,-0.00017561,0.,0.00004102,0.00005404,0.,-0.00002675,-0.000
 02418,0.,-0.00005361,0.00010572,0.,-0.00033913,-0.00006166,0.,-0.00010
 185,-0.00004145,0.,0.00017764,-0.00003316,0.,-0.00071470,-0.00027839,0
 .,-0.00313678,-0.00203895,0.,0.00049950,-0.00098481,0.,0.00018475,-0.0
 0017395,0.,0.00014002,0.00044306,0.,0.00098002,-0.00186644,0.,0.008630
 10,-0.02114527,0.,-0.07701654,0.06995296,0.,-0.00416256,0.02962911,0.,
 0.00120345,0.00210645,0.,0.00011157,-0.00042792,0.,0.00011340,0.000197
 76,0.,0.00029614,0.00152725,0.,-0.00511754,-0.00065246,0.,-0.00000099,
 -0.00000109,0.,-0.00000529,-0.00000120,0.,-0.00000429,-0.00001226,0.,0
 .00000185,-0.00000034,0.,-0.00004912,0.00001909,0.,0.00000513,0.000014
 02,0.,-0.00001217,0.00005689,0.,-0.00023768,-0.00021318,0.,-0.00002154
 ,0.00004530,0.,0.00002226,0.00002084,0.,-0.00041484,0.00055219,0.,0.07
 934249,0.00002889,0.00001860,0.,0.00002113,-0.00002705,0.,-0.00000893,
 -0.00003511,0.,0.00005268,0.00003770,0.,0.00004761,0.00003761,0.,-0.00
 002492,0.00001570,0.,-0.00006207,-0.00004568,0.,0.00015934,0.00005751,
 0.,0.00002972,-0.00001154,0.,-0.00000487,0.00000564,0.,-0.00031450,0.0
 0042442,0.,-0.00392976,-0.00034774,0.,0.00094579,-0.00085620,0.,-0.000
 04674,0.00022716,0.,-0.00034420,0.00010263,0.,0.00239221,0.00079558,0.
 ,0.00771012,-0.01779830,0.,0.07004485,-0.31324048,0.,0.00065199,-0.005
 16482,0.,-0.00216854,0.00062483,0.,0.00040589,0.00011063,0.,-0.0001741
 2,0.00021127,0.,-0.00031184,-0.00040696,0.,0.00116545,0.00152191,0.,0.
 00000458,-0.00000012,0.,0.00000726,0.00000281,0.,-0.00000082,0.0000017
 2,0.,0.00000013,-0.00000559,0.,0.00001909,-0.00001267,0.,0.00001778,-0
 .00001894,0.,-0.00001171,-0.00000376,0.,-0.00026357,-0.00021825,0.,-0.
 00004899,0.00004182,0.,-0.00005353,-0.00002984,0.,-0.00105682,0.000543
 50,0.,-0.07553977,0.33296847,0.,0.,-0.00000462,0.,0.,-0.00000306,0.,0.
 ,0.00000218,0.,0.,0.00001046,0.,0.,0.00006172,0.,0.,-0.00000493,0.,0.,
 0.00001940,0.,0.,-0.00001406,0.,0.,0.00015246,0.,0.,-0.00099200,0.,0.,
 -0.00048991,0.,0.,0.00507965,0.,0.,0.00010886,0.,0.,-0.00015723,0.,0.,
 -0.00007024,0.,0.,-0.00344758,0.,0.,0.00418414,0.,0.,-0.03640228,0.,0.
 ,0.00459903,0.,0.,-0.00445163,0.,0.,-0.00010058,0.,0.,0.00003842,0.,0.
 ,0.00017758,0.,0.,0.00637028,0.,0.,0.00000178,0.,0.,0.00000588,0.,0.,0
 .00000425,0.,0.,-0.00000456,0.,0.,-0.00017146,0.,0.,0.00013504,0.,0.,0
 .00003678,0.,0.,0.00015215,0.,0.,0.00004530,0.,0.,0.00020002,0.,0.,0.0
 0018891,0.,0.,0.02425391,0.00001316,0.00003285,0.,0.00000101,-0.000078
 05,0.,-0.00001859,0.00004836,0.,0.00047166,0.00139531,0.,-0.00040352,0
 .00002458,0.,-0.00000301,0.00013089,0.,-0.00005643,-0.00003958,0.,0.00
 009275,-0.00000226,0.,-0.00000698,0.00001199,0.,-0.00029877,-0.0001225
 2,0.,0.00063173,-0.00094273,0.,0.00018385,-0.00010412,0.,-0.00003506,0
 .00005436,0.,-0.00001263,-0.00003320,0.,0.00002662,0.00001254,0.,-0.00
 003864,-0.00000326,0.,0.00011036,0.00037567,0.,0.00124660,-0.00151144,
 0.,0.00840340,-0.02116731,0.,-0.07768370,0.07196548,0.,-0.00470489,0.0
 3101433,0.,-0.00509695,-0.00058958,0.,-0.00055465,-0.00025233,0.,-0.00
 326647,-0.00205097,0.,-0.00001124,0.00000048,0.,-0.00002560,-0.0000013
 2,0.,0.00001866,-0.00003436,0.,-0.00004542,0.00002213,0.,0.00000513,0.
 00001778,0.,0.00001415,0.00001183,0.,0.00003211,-0.00010474,0.,0.00001
 454,0.00001380,0.,0.00000035,0.00000621,0.,0.00000665,0.00000314,0.,-0
 .00002636,0.00000404,0.,-0.00037104,0.00059207,0.,0.08018609,0.0000282
 9,0.00000042,0.,-0.00000224,-0.00001621,0.,0.00000846,-0.00000560,0.,-
 0.00014205,-0.00029959,0.,0.00015983,0.00005723,0.,-0.00001848,-0.0000
 2843,0.,-0.00000152,0.00003589,0.,-0.00002578,0.00000196,0.,0.00002660
 ,-0.00000100,0.,-0.00036296,-0.00013034,0.,0.00099715,-0.00075834,0.,0
 .00005733,0.00016503,0.,-0.00001496,0.00012689,0.,-0.00009512,-0.00000
 443,0.,-0.00001908,-0.00008134,0.,0.00008057,-0.00008854,0.,-0.0004350
 0,0.00023876,0.,0.00217547,0.00087421,0.,0.00818618,-0.01755021,0.,0.0
 7248577,-0.31464740,0.,-0.00030126,-0.00357814,0.,0.00096132,0.0017745
 0,0.,-0.00048875,0.00054803,0.,-0.00390370,-0.00070363,0.,0.00000642,-
 0.00000128,0.,0.00001281,0.00000287,0.,0.00001197,-0.00001317,0.,0.000
 01282,-0.00000851,0.,0.00001402,-0.00001894,0.,0.00001183,-0.00001799,
 0.,0.00004003,-0.00011638,0.,0.00001812,0.00000910,0.,-0.00001054,0.00
 000150,0.,-0.00001367,-0.00000030,0.,-0.00002944,0.00002396,0.,-0.0010
 8277,0.00048278,0.,-0.07857329,0.33270670,0.,0.,0.00008483,0.,0.,-0.00
 003279,0.,0.,0.00024568,0.,0.,0.00018346,0.,0.,-0.00069779,0.,0.,-0.00
 001880,0.,0.,0.00013722,0.,0.,-0.00088872,0.,0.,0.00005457,0.,0.,-0.00
 001743,0.,0.,0.00029835,0.,0.,-0.00011370,0.,0.,0.00004022,0.,0.,-0.00
 000232,0.,0.,-0.00000431,0.,0.,0.00010077,0.,0.,-0.00016656,0.,0.,-0.0
 0231621,0.,0.,0.00380813,0.,0.,-0.03799214,0.,0.,0.00512873,0.,0.,0.00
 911044,0.,0.,-0.00033158,0.,0.,0.00365865,0.,0.,-0.00000016,0.,0.,-0.0
 0002362,0.,0.,0.00001275,0.,0.,-0.00004892,0.,0.,0.00013504,0.,0.,0.00
 001392,0.,0.,-0.00001225,0.,0.,0.00000075,0.,0.,0.00000152,0.,0.,-0.00
 000887,0.,0.,0.00000529,0.,0.,0.00019220,0.,0.,0.02538073,-0.00005173,
 -0.00002148,0.,-0.00004820,0.00013054,0.,-0.00279709,0.00220164,0.,-0.
 00085448,-0.00115791,0.,0.00010863,-0.00003272,0.,0.00004120,-0.000085
 26,0.,0.00004939,0.00003019,0.,0.00052310,0.00020409,0.,-0.00009944,0.
 00010179,0.,-0.00000406,-0.00001892,0.,0.00014309,0.00000415,0.,-0.000
 04105,0.00007771,0.,0.00004531,0.00001816,0.,-0.00003676,0.00005219,0.
 ,-0.00007564,-0.00003457,0.,0.00004291,-0.00014290,0.,-0.00045766,0.00
 016486,0.,-0.00019145,-0.00131418,0.,-0.00398054,0.00344916,0.,-0.0180
 9399,-0.02483304,0.,-0.18676125,-0.14086918,0.,0.01014082,0.00614939,0
 .,-0.00033853,0.00212712,0.,-0.00009659,0.00045440,0.,0.00000712,-0.00
 000978,0.,0.00002657,-0.00001866,0.,-0.00341761,0.00159337,0.,0.000016
 86,-0.00001861,0.,-0.00001217,-0.00001171,0.,0.00003211,0.00004003,0.,
 -0.00000067,-0.00001768,0.,-0.00000004,-0.00000889,0.,-0.00000682,-0.0
 0000493,0.,-0.00001787,-0.00001052,0.,0.00000115,0.00001291,0.,-0.0000
 1589,0.00006915,0.,0.00120114,0.00022559,0.,0.20502013,-0.00010070,0.0
 0006187,0.,0.00030352,0.00085085,0.,-0.00053674,-0.00113357,0.,-0.0015
 4952,0.00062554,0.,0.00002378,-0.00020240,0.,-0.00011475,0.00017700,0.
 ,-0.00001131,0.00006330,0.,-0.00149229,-0.00038730,0.,0.00035640,-0.00
 036762,0.,-0.00001182,0.00005839,0.,-0.00009677,0.00002332,0.,0.000050
 37,-0.00006419,0.,-0.00003324,0.00000313,0.,0.00002115,-0.00000578,0.,
 -0.00000673,0.00003472,0.,-0.00001853,0.00001946,0.,0.00011852,0.00003
 397,0.,-0.00000413,0.00030523,0.,0.00210248,0.00040122,0.,0.00732418,0
 .00886885,0.,-0.14167503,-0.21103545,0.,-0.02160380,-0.01620412,0.,0.0
 0364630,-0.00401747,0.,0.00075937,0.00009153,0.,-0.00001958,0.00009578
 ,0.,0.00001323,-0.00001579,0.,0.00123593,0.00161640,0.,0.00001103,0.00
 000977,0.,0.00005689,-0.00000376,0.,-0.00010474,-0.00011638,0.,-0.0000
 1768,-0.00000506,0.,0.00000872,0.00000707,0.,-0.00000422,-0.00000128,0
 .,0.00000113,0.00000293,0.,-0.00000273,0.00000282,0.,-0.00000640,-0.00
 000923,0.,-0.00012676,0.00101995,0.,0.15150450,0.21919630,0.,0.,0.0000
 2021,0.,0.,-0.00027711,0.,0.,0.00007762,0.,0.,-0.00212328,0.,0.,-0.000
 03187,0.,0.,0.00001454,0.,0.,-0.00011920,0.,0.,0.00034832,0.,0.,-0.000
 16738,0.,0.,0.00007355,0.,0.,-0.00068788,0.,0.,0.00010571,0.,0.,0.0000
 7365,0.,0.,-0.00002227,0.,0.,0.00011191,0.,0.,-0.00005656,0.,0.,-0.000
 97670,0.,0.,0.00012881,0.,0.,0.00965067,0.,0.,0.00567815,0.,0.,-0.0388
 1182,0.,0.,0.00349579,0.,0.,0.00361877,0.,0.,-0.00015656,0.,0.,0.00004
 733,0.,0.,0.00001320,0.,0.,0.00122432,0.,0.,0.00000557,0.,0.,0.0000367
 8,0.,0.,-0.00001225,0.,0.,0.00004083,0.,0.,-0.00000347,0.,0.,-0.000013
 51,0.,0.,0.00000686,0.,0.,-0.00002410,0.,0.,0.00029372,0.,0.,-0.005917
 10,0.,0.,0.02433473\\0.00004030,-0.00003159,0.,0.00002176,0.00004787,0
 .,-0.00004251,-0.00000949,0.,0.00006214,-0.00000990,0.,0.00004817,-0.0
 0008654,0.,-0.00002446,0.00002177,0.,-0.00000433,0.00001516,0.,0.00004
 030,-0.00007127,0.,-0.00004082,-0.00001831,0.,0.00005295,-0.00010691,0
 .,0.00002725,-0.00009670,0.,-0.00006214,0.00000990,0.,0.00004251,0.000
 00949,0.,-0.00002176,-0.00004787,0.,-0.00004030,0.00003159,0.,0.000024
 46,-0.00002177,0.,-0.00004817,0.00008654,0.,0.00000433,-0.00001516,0.,
 -0.00004030,0.00007127,0.,0.00004082,0.00001831,0.,-0.00005295,0.00010
 691,0.,-0.00002725,0.00009670,0.,0.00008956,-0.00016602,0.,-0.00008956
 ,0.00016602,0.,-0.00002727,0.00000603,0.,-0.00002507,-0.00002284,0.,-0
 .00000429,-0.00001019,0.,-0.00000931,0.00000729,0.,-0.00000026,0.00000
 420,0.,-0.00000127,0.00001677,0.,0.00001508,0.00001858,0.,0.00000429,0
 .00001019,0.,0.00002507,0.00002284,0.,0.00002727,-0.00000603,0.,0.0000
 0931,-0.00000729,0.,0.00000026,-0.00000420,0.,0.00000127,-0.00001677,0
 .,-0.00001508,-0.00001858,0.\\\@
 The archive entry for this job was punched.


 "WHERE SHALL I START, PLEASE YOUR MAJESTY?" HE ASKED.
 "BEGIN AT THE BEGINNING," THE KING SAID GRAVELY,
 "AND GO ON TILL YOU COME TO THE END: THEN STOP." 

                                      -- LEWIS CARROLL
 Job cpu time:       0 days  1 hours 14 minutes 54.5 seconds.
 Elapsed time:       0 days  0 hours  4 minutes 43.1 seconds.
 File lengths (MBytes):  RWF=    376 Int=      0 D2E=      0 Chk=     13 Scr=      1
 Normal termination of Gaussian 16 at Thu Jul 31 12:16:06 2025.
