 Entering Gaussian System, Link 0=g16
 Initial command:
 /opt/g16/l1.exe "/tmp/Gau-1302066.inp" -scrdir="/tmp/"
 Entering Link 1 = /opt/g16/l1.exe PID=   1302068.
  
 Copyright (c) 1988-2019, Gaussian, Inc.  All Rights Reserved.
  
 This is part of the Gaussian(R) 16 program.  It is based on
 the Gaussian(R) 09 system (copyright 2009, Gaussian, Inc.),
 the Gaussian(R) 03 system (copyright 2003, Gaussian, Inc.),
 the Gaussian(R) 98 system (copyright 1998, Gaussian, Inc.),
 the Gaussian(R) 94 system (copyright 1995, Gaussian, Inc.),
 the Gaussian 92(TM) system (copyright 1992, Gaussian, Inc.),
 the Gaussian 90(TM) system (copyright 1990, Gaussian, Inc.),
 the Gaussian 88(TM) system (copyright 1988, Gaussian, Inc.),
 the Gaussian 86(TM) system (copyright 1986, Carnegie Mellon
 University), and the Gaussian 82(TM) system (copyright 1983,
 Carnegie Mellon University). Gaussian is a federally registered
 trademark of Gaussian, Inc.
  
 This software contains proprietary and confidential information,
 including trade secrets, belonging to Gaussian, Inc.
  
 This software is provided under written license and may be
 used, copied, transmitted, or stored only in accord with that
 written license.
  
 The following legend is applicable only to US Government
 contracts under FAR:
  
                    RESTRICTED RIGHTS LEGEND
  
 Use, reproduction and disclosure by the US Government is
 subject to restrictions as set forth in subparagraphs (a)
 and (c) of the Commercial Computer Software - Restricted
 Rights clause in FAR 52.227-19.
  
 Gaussian, Inc.
 340 Quinnipiac St., Bldg. 40, Wallingford CT 06492
  
  
 ---------------------------------------------------------------
 Warning -- This program may not be used in any manner that
 competes with the business of Gaussian, Inc. or will provide
 assistance to any competitor of Gaussian, Inc.  The licensee
 of this program is prohibited from giving any competitor of
 Gaussian, Inc. access to this program.  By using this program,
 the user acknowledges that Gaussian, Inc. is engaged in the
 business of creating and licensing software in the field of
 computational chemistry and represents and warrants to the
 licensee that it is not a competitor of Gaussian, Inc. and that
 it will not use this program in any manner prohibited above.
 ---------------------------------------------------------------
  

 Cite this work as:
 Gaussian 16, Revision C.01,
 M. J. Frisch, G. W. Trucks, H. B. Schlegel, G. E. Scuseria, 
 M. A. Robb, J. R. Cheeseman, G. Scalmani, V. Barone, 
 G. A. Petersson, H. Nakatsuji, X. Li, M. Caricato, A. V. Marenich, 
 J. Bloino, B. G. Janesko, R. Gomperts, B. Mennucci, H. P. Hratchian, 
 J. V. Ortiz, A. F. Izmaylov, J. L. Sonnenberg, D. Williams-Young, 
 F. Ding, F. Lipparini, F. Egidi, J. Goings, B. Peng, A. Petrone, 
 T. Henderson, D. Ranasinghe, V. G. Zakrzewski, J. Gao, N. Rega, 
 G. Zheng, W. Liang, M. Hada, M. Ehara, K. Toyota, R. Fukuda, 
 J. Hasegawa, M. Ishida, T. Nakajima, Y. Honda, O. Kitao, H. Nakai, 
 T. Vreven, K. Throssell, J. A. Montgomery, Jr., J. E. Peralta, 
 F. Ogliaro, M. J. Bearpark, J. J. Heyd, E. N. Brothers, K. N. Kudin, 
 V. N. Staroverov, T. A. Keith, R. Kobayashi, J. Normand, 
 K. Raghavachari, A. P. Rendell, J. C. Burant, S. S. Iyengar, 
 J. Tomasi, M. Cossi, J. M. Millam, M. Klene, C. Adamo, R. Cammi, 
 J. W. Ochterski, R. L. Martin, K. Morokuma, O. Farkas, 
 J. B. Foresman, and D. J. Fox, Gaussian, Inc., Wallingford CT, 2019.
 
 ******************************************
 Gaussian 16:  ES64L-G16RevC.01  3-Jul-2019
                 8-Oct-2024 
 ******************************************
 %nprocshared=8
 Will use up to    8 processors via shared memory.
 %mem=11200MB
 ----------------------------------------------------------------------
 #N opt freq B3LYP/def2SVPP symm=veryloose em=gd3bj scale=0.961 press=0
 .987
 ----------------------------------------------------------------------
 1/18=20,19=15,26=3,38=1,113=-987000,114=961000/1,3;
 2/9=110,12=2,17=2,18=2,40=1/2;
 3/5=43,7=202,11=2,25=1,30=1,71=1,74=-5,124=41/1,2,3;
 4//1;
 5/5=2,38=5/2;
 6/7=2,8=2,9=2,10=2,28=1/1;
 7//1,2,3,16;
 1/18=20,19=15,26=3/3(2);
 2/9=110/2;
 99//99;
 2/9=110/2;
 3/5=43,7=202,11=2,25=1,30=1,71=1,74=-5,124=41/1,2,3;
 4/5=5,16=3,69=1/1;
 5/5=2,38=5/2;
 7//1,2,3,16;
 1/18=20,19=15,26=3/3(-5);
 2/9=110/2;
 6/7=2,8=2,9=2,10=2,19=2,28=1/1;
 99/9=1/99;
 ----------------------------------------------------
 c1cc2cc3cccc4c5cccc6cc7cccc8c(c1)c2c(c34)c(c78)c65_2
 ----------------------------------------------------
 Symbolic Z-matrix:
 Charge =  0 Multiplicity = 1
 C                    -3.5805   -2.856    -0.6716 
 C                    -2.3626   -3.5143   -0.65 
 C                    -1.1798   -2.8      -0.4396 
 C                     0.0379   -3.4811   -0.4212 
 C                     1.2408   -2.805    -0.2142 
 C                     2.4392   -3.5242   -0.2029 
 C                     3.6428   -2.8709    0.001 
 C                     3.653    -1.4914    0.195 
 C                     2.4667   -0.714     0.193 
 C                     2.4512    0.7039    0.39 
 C                     3.6208    1.4764    0.6074 
 C                     3.5805    2.856     0.7967 
 C                     2.3626    3.5143    0.7751 
 C                     1.1798    2.8       0.5646 
 C                    -0.0379    3.4811    0.5462 
 C                    -1.2408    2.805     0.3393 
 C                    -2.4392    3.5242    0.328 
 C                    -3.6428    2.8709    0.1241 
 C                    -3.653     1.4913   -0.0699 
 C                    -2.4667    0.714    -0.0679 
 C                    -2.4512   -0.7039   -0.2649 
 C                    -3.6207   -1.4764   -0.4823 
 C                    -1.2113   -1.3947   -0.2458 
 C                     0.0076   -0.6979   -0.0344 
 C                     1.2417   -1.3997   -0.0174 
 C                    -0.0076    0.6979    0.1595 
 C                    -1.2417    1.3997    0.1425 
 C                     1.2113    1.3947    0.3709 
 H                    -4.5001   -3.4113   -0.8353 
 H                    -2.3448   -4.5915   -0.7991 
 H                     0.0496   -4.5596   -0.571 
 H                     2.4448   -4.6014   -0.3532 
 H                     4.5745   -3.43      0.0097 
 H                     4.6251   -1.0328    0.35 
 H                     4.6029    1.0138    0.6344 
 H                     4.5001    3.4113    0.9603 
 H                     2.3448    4.5915    0.9242 
 H                    -0.0496    4.5596    0.6961 
 H                    -2.4448    4.6014    0.4782 
 H                    -4.5745    3.43      0.1153 
 H                    -4.6251    1.0328   -0.2249 
 H                    -4.6029   -1.0138   -0.5093 
 

 GradGradGradGradGradGradGradGradGradGradGradGradGradGradGradGradGradGrad
 Berny optimization.
 Initialization pass.
                           ----------------------------
                           !    Initial Parameters    !
                           ! (Angstroms and Degrees)  !
 --------------------------                            --------------------------
 ! Name  Definition              Value          Derivative Info.                !
 --------------------------------------------------------------------------------
 ! R1    R(1,2)                  1.3846         estimate D2E/DX2                !
 ! R2    R(1,22)                 1.3931         estimate D2E/DX2                !
 ! R3    R(1,29)                 1.0867         estimate D2E/DX2                !
 ! R4    R(2,3)                  1.3977         estimate D2E/DX2                !
 ! R5    R(2,30)                 1.0876         estimate D2E/DX2                !
 ! R6    R(3,4)                  1.3954         estimate D2E/DX2                !
 ! R7    R(3,23)                 1.4189         estimate D2E/DX2                !
 ! R8    R(4,5)                  1.3953         estimate D2E/DX2                !
 ! R9    R(4,31)                 1.0889         estimate D2E/DX2                !
 ! R10   R(5,6)                  1.3977         estimate D2E/DX2                !
 ! R11   R(5,25)                 1.419          estimate D2E/DX2                !
 ! R12   R(6,7)                  1.3846         estimate D2E/DX2                !
 ! R13   R(6,32)                 1.0876         estimate D2E/DX2                !
 ! R14   R(7,8)                  1.3931         estimate D2E/DX2                !
 ! R15   R(7,33)                 1.0866         estimate D2E/DX2                !
 ! R16   R(8,9)                  1.4183         estimate D2E/DX2                !
 ! R17   R(8,34)                 1.086          estimate D2E/DX2                !
 ! R18   R(9,10)                 1.4316         estimate D2E/DX2                !
 ! R19   R(9,25)                 1.4195         estimate D2E/DX2                !
 ! R20   R(10,11)                1.4184         estimate D2E/DX2                !
 ! R21   R(10,28)                1.4195         estimate D2E/DX2                !
 ! R22   R(11,12)                1.3931         estimate D2E/DX2                !
 ! R23   R(11,35)                1.0859         estimate D2E/DX2                !
 ! R24   R(12,13)                1.3846         estimate D2E/DX2                !
 ! R25   R(12,36)                1.0866         estimate D2E/DX2                !
 ! R26   R(13,14)                1.3977         estimate D2E/DX2                !
 ! R27   R(13,37)                1.0876         estimate D2E/DX2                !
 ! R28   R(14,15)                1.3954         estimate D2E/DX2                !
 ! R29   R(14,28)                1.4189         estimate D2E/DX2                !
 ! R30   R(15,16)                1.3953         estimate D2E/DX2                !
 ! R31   R(15,38)                1.0889         estimate D2E/DX2                !
 ! R32   R(16,17)                1.3977         estimate D2E/DX2                !
 ! R33   R(16,27)                1.419          estimate D2E/DX2                !
 ! R34   R(17,18)                1.3846         estimate D2E/DX2                !
 ! R35   R(17,39)                1.0876         estimate D2E/DX2                !
 ! R36   R(18,19)                1.3932         estimate D2E/DX2                !
 ! R37   R(18,40)                1.0866         estimate D2E/DX2                !
 ! R38   R(19,20)                1.4183         estimate D2E/DX2                !
 ! R39   R(19,41)                1.0859         estimate D2E/DX2                !
 ! R40   R(20,21)                1.4316         estimate D2E/DX2                !
 ! R41   R(20,27)                1.4195         estimate D2E/DX2                !
 ! R42   R(21,22)                1.4184         estimate D2E/DX2                !
 ! R43   R(21,23)                1.4195         estimate D2E/DX2                !
 ! R44   R(22,42)                1.086          estimate D2E/DX2                !
 ! R45   R(23,24)                1.4198         estimate D2E/DX2                !
 ! R46   R(24,25)                1.4198         estimate D2E/DX2                !
 ! R47   R(24,26)                1.4093         estimate D2E/DX2                !
 ! R48   R(26,27)                1.4198         estimate D2E/DX2                !
 ! R49   R(26,28)                1.4198         estimate D2E/DX2                !
 ! A1    A(2,1,22)             119.6103         estimate D2E/DX2                !
 ! A2    A(2,1,29)             120.2498         estimate D2E/DX2                !
 ! A3    A(22,1,29)            120.1399         estimate D2E/DX2                !
 ! A4    A(1,2,3)              120.2479         estimate D2E/DX2                !
 ! A5    A(1,2,30)             118.8913         estimate D2E/DX2                !
 ! A6    A(3,2,30)             120.8608         estimate D2E/DX2                !
 ! A7    A(2,3,4)              119.4089         estimate D2E/DX2                !
 ! A8    A(2,3,23)             120.5253         estimate D2E/DX2                !
 ! A9    A(4,3,23)             120.0658         estimate D2E/DX2                !
 ! A10   A(3,4,5)              121.1828         estimate D2E/DX2                !
 ! A11   A(3,4,31)             119.4071         estimate D2E/DX2                !
 ! A12   A(5,4,31)             119.4101         estimate D2E/DX2                !
 ! A13   A(4,5,6)              119.409          estimate D2E/DX2                !
 ! A14   A(4,5,25)             120.0652         estimate D2E/DX2                !
 ! A15   A(6,5,25)             120.5257         estimate D2E/DX2                !
 ! A16   A(5,6,7)              120.248          estimate D2E/DX2                !
 ! A17   A(5,6,32)             120.8583         estimate D2E/DX2                !
 ! A18   A(7,6,32)             118.8936         estimate D2E/DX2                !
 ! A19   A(6,7,8)              119.6108         estimate D2E/DX2                !
 ! A20   A(6,7,33)             120.2493         estimate D2E/DX2                !
 ! A21   A(8,7,33)             120.1399         estimate D2E/DX2                !
 ! A22   A(7,8,9)              122.4412         estimate D2E/DX2                !
 ! A23   A(7,8,34)             116.3979         estimate D2E/DX2                !
 ! A24   A(9,8,34)             121.161          estimate D2E/DX2                !
 ! A25   A(8,9,10)             123.4854         estimate D2E/DX2                !
 ! A26   A(8,9,25)             117.2086         estimate D2E/DX2                !
 ! A27   A(10,9,25)            119.306          estimate D2E/DX2                !
 ! A28   A(9,10,11)            123.4742         estimate D2E/DX2                !
 ! A29   A(9,10,28)            119.3146         estimate D2E/DX2                !
 ! A30   A(11,10,28)           117.2113         estimate D2E/DX2                !
 ! A31   A(10,11,12)           122.4323         estimate D2E/DX2                !
 ! A32   A(10,11,35)           121.167          estimate D2E/DX2                !
 ! A33   A(12,11,35)           116.4007         estimate D2E/DX2                !
 ! A34   A(11,12,13)           119.6144         estimate D2E/DX2                !
 ! A35   A(11,12,36)           120.1354         estimate D2E/DX2                !
 ! A36   A(13,12,36)           120.2502         estimate D2E/DX2                !
 ! A37   A(12,13,14)           120.2476         estimate D2E/DX2                !
 ! A38   A(12,13,37)           118.8913         estimate D2E/DX2                !
 ! A39   A(14,13,37)           120.8611         estimate D2E/DX2                !
 ! A40   A(13,14,15)           119.4086         estimate D2E/DX2                !
 ! A41   A(13,14,28)           120.5252         estimate D2E/DX2                !
 ! A42   A(15,14,28)           120.0662         estimate D2E/DX2                !
 ! A43   A(14,15,16)           121.1831         estimate D2E/DX2                !
 ! A44   A(14,15,38)           119.4066         estimate D2E/DX2                !
 ! A45   A(16,15,38)           119.4103         estimate D2E/DX2                !
 ! A46   A(15,16,17)           119.4093         estimate D2E/DX2                !
 ! A47   A(15,16,27)           120.0649         estimate D2E/DX2                !
 ! A48   A(17,16,27)           120.5257         estimate D2E/DX2                !
 ! A49   A(16,17,18)           120.248          estimate D2E/DX2                !
 ! A50   A(16,17,39)           120.8588         estimate D2E/DX2                !
 ! A51   A(18,17,39)           118.8932         estimate D2E/DX2                !
 ! A52   A(17,18,19)           119.6107         estimate D2E/DX2                !
 ! A53   A(17,18,40)           120.2501         estimate D2E/DX2                !
 ! A54   A(19,18,40)           120.1391         estimate D2E/DX2                !
 ! A55   A(18,19,20)           122.4379         estimate D2E/DX2                !
 ! A56   A(18,19,41)           116.3931         estimate D2E/DX2                !
 ! A57   A(20,19,41)           121.169          estimate D2E/DX2                !
 ! A58   A(19,20,21)           123.482          estimate D2E/DX2                !
 ! A59   A(19,20,27)           117.2119         estimate D2E/DX2                !
 ! A60   A(21,20,27)           119.306          estimate D2E/DX2                !
 ! A61   A(20,21,22)           123.4764         estimate D2E/DX2                !
 ! A62   A(20,21,23)           119.3146         estimate D2E/DX2                !
 ! A63   A(22,21,23)           117.209          estimate D2E/DX2                !
 ! A64   A(1,22,21)            122.4387         estimate D2E/DX2                !
 ! A65   A(1,22,42)            116.3944         estimate D2E/DX2                !
 ! A66   A(21,22,42)           121.1669         estimate D2E/DX2                !
 ! A67   A(3,23,21)            119.9689         estimate D2E/DX2                !
 ! A68   A(3,23,24)            119.1644         estimate D2E/DX2                !
 ! A69   A(21,23,24)           120.8668         estimate D2E/DX2                !
 ! A70   A(23,24,25)           120.3579         estimate D2E/DX2                !
 ! A71   A(23,24,26)           119.8209         estimate D2E/DX2                !
 ! A72   A(25,24,26)           119.8212         estimate D2E/DX2                !
 ! A73   A(5,25,9)             119.9657         estimate D2E/DX2                !
 ! A74   A(5,25,24)            119.1638         estimate D2E/DX2                !
 ! A75   A(9,25,24)            120.8705         estimate D2E/DX2                !
 ! A76   A(24,26,27)           119.8212         estimate D2E/DX2                !
 ! A77   A(24,26,28)           119.8209         estimate D2E/DX2                !
 ! A78   A(27,26,28)           120.3579         estimate D2E/DX2                !
 ! A79   A(16,27,20)           119.9657         estimate D2E/DX2                !
 ! A80   A(16,27,26)           119.1638         estimate D2E/DX2                !
 ! A81   A(20,27,26)           120.8705         estimate D2E/DX2                !
 ! A82   A(10,28,14)           119.9692         estimate D2E/DX2                !
 ! A83   A(10,28,26)           120.8668         estimate D2E/DX2                !
 ! A84   A(14,28,26)           119.164          estimate D2E/DX2                !
 ! D1    D(22,1,2,3)             0.0002         estimate D2E/DX2                !
 ! D2    D(22,1,2,30)         -179.9985         estimate D2E/DX2                !
 ! D3    D(29,1,2,3)           179.9924         estimate D2E/DX2                !
 ! D4    D(29,1,2,30)           -0.0063         estimate D2E/DX2                !
 ! D5    D(2,1,22,21)           -0.0048         estimate D2E/DX2                !
 ! D6    D(2,1,22,42)          179.9987         estimate D2E/DX2                !
 ! D7    D(29,1,22,21)        -179.997          estimate D2E/DX2                !
 ! D8    D(29,1,22,42)           0.0064         estimate D2E/DX2                !
 ! D9    D(1,2,3,4)            179.9996         estimate D2E/DX2                !
 ! D10   D(1,2,3,23)             0.0041         estimate D2E/DX2                !
 ! D11   D(30,2,3,4)            -0.0018         estimate D2E/DX2                !
 ! D12   D(30,2,3,23)         -179.9973         estimate D2E/DX2                !
 ! D13   D(2,3,4,5)           -179.9968         estimate D2E/DX2                !
 ! D14   D(2,3,4,31)            -0.0013         estimate D2E/DX2                !
 ! D15   D(23,3,4,5)            -0.0012         estimate D2E/DX2                !
 ! D16   D(23,3,4,31)          179.9942         estimate D2E/DX2                !
 ! D17   D(2,3,23,21)           -0.0038         estimate D2E/DX2                !
 ! D18   D(2,3,23,24)          179.9963         estimate D2E/DX2                !
 ! D19   D(4,3,23,21)         -179.9993         estimate D2E/DX2                !
 ! D20   D(4,3,23,24)            0.0009         estimate D2E/DX2                !
 ! D21   D(3,4,5,6)            179.9983         estimate D2E/DX2                !
 ! D22   D(3,4,5,25)             0.0            estimate D2E/DX2                !
 ! D23   D(31,4,5,6)             0.0029         estimate D2E/DX2                !
 ! D24   D(31,4,5,25)         -179.9954         estimate D2E/DX2                !
 ! D25   D(4,5,6,7)           -179.9988         estimate D2E/DX2                !
 ! D26   D(4,5,6,32)             0.0038         estimate D2E/DX2                !
 ! D27   D(25,5,6,7)            -0.0005         estimate D2E/DX2                !
 ! D28   D(25,5,6,32)         -179.9979         estimate D2E/DX2                !
 ! D29   D(4,5,25,9)          -179.9996         estimate D2E/DX2                !
 ! D30   D(4,5,25,24)            0.0015         estimate D2E/DX2                !
 ! D31   D(6,5,25,9)             0.0021         estimate D2E/DX2                !
 ! D32   D(6,5,25,24)         -179.9967         estimate D2E/DX2                !
 ! D33   D(5,6,7,8)             -0.0022         estimate D2E/DX2                !
 ! D34   D(5,6,7,33)          -179.9945         estimate D2E/DX2                !
 ! D35   D(32,6,7,8)           179.9952         estimate D2E/DX2                !
 ! D36   D(32,6,7,33)            0.0029         estimate D2E/DX2                !
 ! D37   D(6,7,8,9)              0.0034         estimate D2E/DX2                !
 ! D38   D(6,7,8,34)          -179.9988         estimate D2E/DX2                !
 ! D39   D(33,7,8,9)           179.9957         estimate D2E/DX2                !
 ! D40   D(33,7,8,34)           -0.0065         estimate D2E/DX2                !
 ! D41   D(7,8,9,10)           179.9987         estimate D2E/DX2                !
 ! D42   D(7,8,9,25)            -0.0018         estimate D2E/DX2                !
 ! D43   D(34,8,9,10)            0.0011         estimate D2E/DX2                !
 ! D44   D(34,8,9,25)         -179.9994         estimate D2E/DX2                !
 ! D45   D(8,9,10,11)           -0.0018         estimate D2E/DX2                !
 ! D46   D(8,9,10,28)         -179.9988         estimate D2E/DX2                !
 ! D47   D(25,9,10,11)         179.9987         estimate D2E/DX2                !
 ! D48   D(25,9,10,28)           0.0017         estimate D2E/DX2                !
 ! D49   D(8,9,25,5)            -0.001          estimate D2E/DX2                !
 ! D50   D(8,9,25,24)          179.9978         estimate D2E/DX2                !
 ! D51   D(10,9,25,5)          179.9986         estimate D2E/DX2                !
 ! D52   D(10,9,25,24)          -0.0026         estimate D2E/DX2                !
 ! D53   D(9,10,11,12)         179.9989         estimate D2E/DX2                !
 ! D54   D(9,10,11,35)           0.001          estimate D2E/DX2                !
 ! D55   D(28,10,11,12)         -0.004          estimate D2E/DX2                !
 ! D56   D(28,10,11,35)        179.9981         estimate D2E/DX2                !
 ! D57   D(9,10,28,14)        -179.9981         estimate D2E/DX2                !
 ! D58   D(9,10,28,26)          -0.0025         estimate D2E/DX2                !
 ! D59   D(11,10,28,14)          0.0048         estimate D2E/DX2                !
 ! D60   D(11,10,28,26)       -179.9997         estimate D2E/DX2                !
 ! D61   D(10,11,12,13)          0.0039         estimate D2E/DX2                !
 ! D62   D(10,11,12,36)       -179.9974         estimate D2E/DX2                !
 ! D63   D(35,11,12,13)       -179.9982         estimate D2E/DX2                !
 ! D64   D(35,11,12,36)          0.0006         estimate D2E/DX2                !
 ! D65   D(11,12,13,14)         -0.0044         estimate D2E/DX2                !
 ! D66   D(11,12,13,37)        179.999          estimate D2E/DX2                !
 ! D67   D(36,12,13,14)        179.9969         estimate D2E/DX2                !
 ! D68   D(36,12,13,37)          0.0003         estimate D2E/DX2                !
 ! D69   D(12,13,14,15)       -179.9995         estimate D2E/DX2                !
 ! D70   D(12,13,14,28)          0.0053         estimate D2E/DX2                !
 ! D71   D(37,13,14,15)         -0.0029         estimate D2E/DX2                !
 ! D72   D(37,13,14,28)       -179.9981         estimate D2E/DX2                !
 ! D73   D(13,14,15,16)       -179.9939         estimate D2E/DX2                !
 ! D74   D(13,14,15,38)          0.0            estimate D2E/DX2                !
 ! D75   D(28,14,15,16)          0.0014         estimate D2E/DX2                !
 ! D76   D(28,14,15,38)        179.9953         estimate D2E/DX2                !
 ! D77   D(13,14,28,10)         -0.0055         estimate D2E/DX2                !
 ! D78   D(13,14,28,26)        179.9989         estimate D2E/DX2                !
 ! D79   D(15,14,28,10)        179.9993         estimate D2E/DX2                !
 ! D80   D(15,14,28,26)          0.0037         estimate D2E/DX2                !
 ! D81   D(14,15,16,17)       -179.9985         estimate D2E/DX2                !
 ! D82   D(14,15,16,27)         -0.0048         estimate D2E/DX2                !
 ! D83   D(38,15,16,17)          0.0076         estimate D2E/DX2                !
 ! D84   D(38,15,16,27)       -179.9987         estimate D2E/DX2                !
 ! D85   D(15,16,17,18)        179.9941         estimate D2E/DX2                !
 ! D86   D(15,16,17,39)         -0.0024         estimate D2E/DX2                !
 ! D87   D(27,16,17,18)          0.0005         estimate D2E/DX2                !
 ! D88   D(27,16,17,39)       -179.9961         estimate D2E/DX2                !
 ! D89   D(15,16,27,20)       -179.9957         estimate D2E/DX2                !
 ! D90   D(15,16,27,26)          0.0031         estimate D2E/DX2                !
 ! D91   D(17,16,27,20)         -0.0021         estimate D2E/DX2                !
 ! D92   D(17,16,27,26)        179.9967         estimate D2E/DX2                !
 ! D93   D(16,17,18,19)          0.0028         estimate D2E/DX2                !
 ! D94   D(16,17,18,40)       -179.9995         estimate D2E/DX2                !
 ! D95   D(39,17,18,19)        179.9995         estimate D2E/DX2                !
 ! D96   D(39,17,18,40)         -0.0028         estimate D2E/DX2                !
 ! D97   D(17,18,19,20)         -0.0047         estimate D2E/DX2                !
 ! D98   D(17,18,19,41)        179.9996         estimate D2E/DX2                !
 ! D99   D(40,18,19,20)        179.9976         estimate D2E/DX2                !
 ! D100  D(40,18,19,41)          0.0019         estimate D2E/DX2                !
 ! D101  D(18,19,20,21)       -179.9981         estimate D2E/DX2                !
 ! D102  D(18,19,20,27)          0.0031         estimate D2E/DX2                !
 ! D103  D(41,19,20,21)         -0.0026         estimate D2E/DX2                !
 ! D104  D(41,19,20,27)        179.9985         estimate D2E/DX2                !
 ! D105  D(19,20,21,22)          0.0029         estimate D2E/DX2                !
 ! D106  D(19,20,21,23)        179.9994         estimate D2E/DX2                !
 ! D107  D(27,20,21,22)       -179.9983         estimate D2E/DX2                !
 ! D108  D(27,20,21,23)         -0.0017         estimate D2E/DX2                !
 ! D109  D(19,20,27,16)          0.0003         estimate D2E/DX2                !
 ! D110  D(19,20,27,26)       -179.9985         estimate D2E/DX2                !
 ! D111  D(21,20,27,16)       -179.9986         estimate D2E/DX2                !
 ! D112  D(21,20,27,26)          0.0026         estimate D2E/DX2                !
 ! D113  D(20,21,22,1)        -179.9985         estimate D2E/DX2                !
 ! D114  D(20,21,22,42)         -0.0021         estimate D2E/DX2                !
 ! D115  D(23,21,22,1)           0.0049         estimate D2E/DX2                !
 ! D116  D(23,21,22,42)       -179.9987         estimate D2E/DX2                !
 ! D117  D(20,21,23,3)        -179.9974         estimate D2E/DX2                !
 ! D118  D(20,21,23,24)          0.0025         estimate D2E/DX2                !
 ! D119  D(22,21,23,3)          -0.0006         estimate D2E/DX2                !
 ! D120  D(22,21,23,24)        179.9993         estimate D2E/DX2                !
 ! D121  D(3,23,24,25)           0.0007         estimate D2E/DX2                !
 ! D122  D(3,23,24,26)         179.9957         estimate D2E/DX2                !
 ! D123  D(21,23,24,25)       -179.9992         estimate D2E/DX2                !
 ! D124  D(21,23,24,26)         -0.0041         estimate D2E/DX2                !
 ! D125  D(23,24,25,5)          -0.0019         estimate D2E/DX2                !
 ! D126  D(23,24,25,9)         179.9993         estimate D2E/DX2                !
 ! D127  D(26,24,25,5)        -179.9969         estimate D2E/DX2                !
 ! D128  D(26,24,25,9)           0.0043         estimate D2E/DX2                !
 ! D129  D(23,24,26,27)          0.005          estimate D2E/DX2                !
 ! D130  D(23,24,26,28)        180.0            estimate D2E/DX2                !
 ! D131  D(25,24,26,27)        180.0            estimate D2E/DX2                !
 ! D132  D(25,24,26,28)         -0.005          estimate D2E/DX2                !
 ! D133  D(24,26,27,16)        179.9969         estimate D2E/DX2                !
 ! D134  D(24,26,27,20)         -0.0043         estimate D2E/DX2                !
 ! D135  D(28,26,27,16)          0.0019         estimate D2E/DX2                !
 ! D136  D(28,26,27,20)       -179.9993         estimate D2E/DX2                !
 ! D137  D(24,26,28,10)          0.0041         estimate D2E/DX2                !
 ! D138  D(24,26,28,14)        179.9997         estimate D2E/DX2                !
 ! D139  D(27,26,28,10)        179.9992         estimate D2E/DX2                !
 ! D140  D(27,26,28,14)         -0.0053         estimate D2E/DX2                !
 --------------------------------------------------------------------------------
 Trust Radius=3.00D-01 FncErr=1.00D-07 GrdErr=1.00D-06 EigMax=2.50D+02 EigMin=1.00D-04
 Number of steps in this run=    252 maximum allowed number of steps=    252.
 GradGradGradGradGradGradGradGradGradGradGradGradGradGradGradGradGradGrad

                          Input orientation:                          
 ---------------------------------------------------------------------
 Center     Atomic      Atomic             Coordinates (Angstroms)
 Number     Number       Type             X           Y           Z
 ---------------------------------------------------------------------
      1          6           0       -3.580500   -2.856000   -0.671600
      2          6           0       -2.362600   -3.514300   -0.650000
      3          6           0       -1.179800   -2.800000   -0.439600
      4          6           0        0.037900   -3.481100   -0.421200
      5          6           0        1.240800   -2.805000   -0.214200
      6          6           0        2.439200   -3.524200   -0.202900
      7          6           0        3.642800   -2.870900    0.001000
      8          6           0        3.653000   -1.491400    0.195000
      9          6           0        2.466700   -0.714000    0.193000
     10          6           0        2.451200    0.703900    0.390000
     11          6           0        3.620800    1.476400    0.607400
     12          6           0        3.580500    2.856000    0.796700
     13          6           0        2.362600    3.514300    0.775100
     14          6           0        1.179800    2.800000    0.564600
     15          6           0       -0.037900    3.481100    0.546200
     16          6           0       -1.240800    2.805000    0.339300
     17          6           0       -2.439200    3.524200    0.328000
     18          6           0       -3.642800    2.870900    0.124100
     19          6           0       -3.653000    1.491300   -0.069900
     20          6           0       -2.466700    0.714000   -0.067900
     21          6           0       -2.451200   -0.703900   -0.264900
     22          6           0       -3.620700   -1.476400   -0.482300
     23          6           0       -1.211300   -1.394700   -0.245800
     24          6           0        0.007600   -0.697900   -0.034400
     25          6           0        1.241700   -1.399700   -0.017400
     26          6           0       -0.007600    0.697900    0.159500
     27          6           0       -1.241700    1.399700    0.142500
     28          6           0        1.211300    1.394700    0.370900
     29          1           0       -4.500100   -3.411300   -0.835300
     30          1           0       -2.344800   -4.591500   -0.799100
     31          1           0        0.049600   -4.559600   -0.571000
     32          1           0        2.444800   -4.601400   -0.353200
     33          1           0        4.574500   -3.430000    0.009700
     34          1           0        4.625100   -1.032800    0.350000
     35          1           0        4.602900    1.013800    0.634400
     36          1           0        4.500100    3.411300    0.960300
     37          1           0        2.344800    4.591500    0.924200
     38          1           0       -0.049600    4.559600    0.696100
     39          1           0       -2.444800    4.601400    0.478200
     40          1           0       -4.574500    3.430000    0.115300
     41          1           0       -4.625100    1.032800   -0.224900
     42          1           0       -4.602900   -1.013800   -0.509300
 ---------------------------------------------------------------------
                    Distance matrix (angstroms):
                    1          2          3          4          5
     1  C    0.000000
     2  C    1.384596   0.000000
     3  C    2.412534   1.397680   0.000000
     4  C    3.680526   2.411608   1.395360   0.000000
     5  C    4.843217   3.698313   2.431077   1.395324   0.000000
     6  C    6.074781   4.822580   3.698331   2.411587   1.397691
     7  C    7.254562   6.074751   4.843204   3.680476   2.412521
     8  C    7.411926   6.402624   5.046891   4.172236   2.776994
     9  C    6.473355   5.645748   4.248357   3.732714   2.457829
    10  C    7.083875   6.484403   5.113679   4.898601   3.760652
    11  C    8.500838   7.892352   6.513798   6.202580   4.966872
    12  C    9.277002   8.831427   7.495281   7.361531   6.208304
    13  C    8.831427   8.588343   7.341286   7.467997   6.493897
    14  C    7.495264   7.341269   6.159231   6.459718   5.659176
    15  C    7.361514   7.467981   6.459718   7.029498   6.459747
    16  C    6.208304   6.493897   5.659190   6.459759   6.159286
    17  C    6.558103   7.106535   6.493905   7.468035   7.341332
    18  C    5.782249   6.558119   6.208320   7.361577   7.495321
    19  C    4.389341   5.201700   4.966755   6.202493   6.513701
    20  C    3.788127   4.269449   3.760647   4.898643   5.113738
    21  C    2.464195   2.838045   2.457766   3.732678   4.248300
    22  C    1.393107   2.400828   2.777001   4.172279   5.046904
    23  C    2.815992   2.445726   1.418950   2.438100   2.828911
    24  C    4.235314   3.732147   2.448046   2.810113   2.448057
    25  C    5.079606   4.226428   2.828914   2.438117   1.419013
    26  C    5.107499   4.893255   3.737416   4.219399   3.737441
    27  C    4.923792   5.102144   4.240301   5.077139   4.895870
    28  C    6.489731   6.157376   4.895894   5.077176   4.240365
    29  H    1.086655   2.147988   3.399214   4.557389   5.806143
    30  H    2.134285   1.087616   2.167011   2.655759   4.048483
    31  H    4.011234   2.630133   2.150554   1.088917   2.150555
    32  H    6.281086   4.937709   4.048485   2.655723   2.167023
    33  H    8.203516   6.968907   5.806095   4.557305   3.399163
    34  H    8.467561   7.482366   6.119095   5.256551   3.861671
    35  H    9.145984   8.406638   7.009862   6.492892   5.158204
    36  H   10.355590   9.881986   8.532364   8.326161   7.116521
    37  H    9.649923   9.504826   8.301628   8.502868   7.564587
    38  H    8.326403   8.505869   7.531990   8.118428   7.532006
    39  H    7.630509   8.194155   7.564609   8.502913   8.301676
    40  H    6.412569   7.328130   7.116516   8.326186   8.532380
    41  H    4.051357   5.096640   5.158153   6.492873   7.009822
    42  H    2.113136   3.360244   3.861733   5.256649   6.119176
                    6          7          8          9         10
     6  C    0.000000
     7  C    1.384568   0.000000
     8  C    2.400815   1.393112   0.000000
     9  C    2.838083   2.464202   1.418331   0.000000
    10  C    4.269485   3.788196   2.510317   1.431604   0.000000
    11  C    5.201804   4.389444   2.996489   2.510284   1.418444
    12  C    6.558103   5.782249   4.389440   3.788127   2.464195
    13  C    7.106535   6.558119   5.201796   4.269449   2.838045
    14  C    6.493893   6.208311   4.966834   3.760637   2.457759
    15  C    7.468025   7.361569   6.202567   4.898636   3.732674
    16  C    7.341332   7.495321   6.513766   5.113738   4.248300
    17  C    8.588398   8.831475   7.892327   6.484475   5.645702
    18  C    8.831475   9.277036   8.500787   7.083943   6.473286
    19  C    7.892264   8.500736   7.895841   6.510238   6.171934
    20  C    6.484475   7.083943   6.510271   5.142537   4.939182
    21  C    5.645702   6.473286   6.171946   4.939182   5.142404
    22  C    6.402651   7.411926   7.305181   6.172011   6.510191
    23  C    4.226436   5.079603   4.885189   3.766110   4.268755
    24  C    3.732163   4.235311   3.737808   2.469644   2.848919
    25  C    2.445796   2.816034   2.422373   1.419534   2.460487
    26  C    4.893291   5.107531   4.265476   2.848990   2.469588
    27  C    6.157363   6.489714   5.685007   4.268783   3.766020
    28  C    5.102211   4.923856   3.784496   2.460547   1.419479
    29  H    6.968971   8.203551   8.439228   7.541162   8.170484
    30  H    4.937736   6.281081   6.824402   6.258578   7.242709
    31  H    2.630159   4.011231   4.794278   4.605943   5.864779
    32  H    1.087649   2.134313   3.381179   3.925646   5.357107
    33  H    2.147924   1.086616   2.154453   3.442830   4.662849
    34  H    3.360198   2.113132   1.085964   2.187458   2.782727
    35  H    5.096677   4.051405   2.715034   2.782710   2.187597
    36  H    7.328131   6.412586   5.033858   4.662785   3.442855
    37  H    8.194135   7.630499   6.264566   5.357037   3.925573
    38  H    8.505889   8.326423   7.111607   5.864787   4.605879
    39  H    9.504879   9.649967   8.624707   7.242765   6.258522
    40  H    9.882011  10.355599   9.587402   8.170512   7.541057
    41  H    8.406609   9.145932   8.664574   7.315708   7.110577
    42  H    7.482457   8.467632   8.299640   7.110721   7.315706
                   11         12         13         14         15
    11  C    0.000000
    12  C    1.393110   0.000000
    13  C    2.400880   1.384596   0.000000
    14  C    2.777090   2.412544   1.397695   0.000000
    15  C    4.172368   3.680532   2.411617   1.395360   0.000000
    16  C    5.047000   4.843217   3.698313   2.431068   1.395309
    17  C    6.402745   6.074781   4.822580   3.698325   2.411578
    18  C    7.412024   7.254562   6.074751   4.843195   3.680464
    19  C    7.305281   7.411945   6.402655   5.046904   4.172269
    20  C    6.172110   6.473355   5.645748   4.248343   3.732698
    21  C    6.510284   7.083875   6.484403   5.113663   4.898584
    22  C    7.895935   8.500754   7.892276   6.513708   6.202505
    23  C    5.685099   6.489731   6.157376   4.895877   5.077160
    24  C    4.265525   5.107499   4.893255   3.737400   4.219385
    25  C    3.784500   4.923792   5.102144   4.240287   5.077128
    26  C    3.737909   4.235314   3.732147   2.448030   2.810099
    27  C    4.885276   5.079606   4.226428   2.828899   2.438101
    28  C    2.422457   2.815992   2.445726   1.418936   2.438093
    29  H    9.587492  10.355606   9.882003   8.532364   8.326161
    30  H    8.624734   9.649923   9.504826   8.301612   8.502852
    31  H    7.111638   8.326403   8.505869   7.531975   8.118414
    32  H    6.264613   7.630524   8.194169   7.564609   8.502913
    33  H    5.033840   6.412581   7.328140   7.116516   8.326186
    34  H    2.714951   4.051357   5.096640   5.158149   6.492870
    35  H    1.085932   2.113136   3.360244   3.861735   5.256650
    36  H    2.154424   1.086640   2.147979   3.399214   4.557389
    37  H    3.381181   2.134285   1.087616   2.167028   2.655773
    38  H    4.794354   4.011234   2.630133   2.150560   1.088930
    39  H    6.824502   6.281091   4.937715   4.048485   2.655723
    40  H    8.439292   8.203524   6.968917   5.806095   4.557305
    41  H    8.299661   8.467561   7.482366   6.119082   5.256536
    42  H    8.664719   9.145984   8.406638   7.009847   6.492875
                   16         17         18         19         20
    16  C    0.000000
    17  C    1.397691   0.000000
    18  C    2.412521   1.384568   0.000000
    19  C    2.777042   2.400899   1.393211   0.000000
    20  C    2.457829   2.838083   2.464202   1.418276   0.000000
    21  C    3.760652   4.269485   3.788196   2.510229   1.431604
    22  C    4.966824   5.201781   4.389445   2.996391   2.510238
    23  C    4.240365   5.102211   4.923856   3.784420   2.460547
    24  C    3.737441   4.893291   5.107531   4.265425   2.848990
    25  C    4.895870   6.157363   6.489714   5.684956   4.268783
    26  C    2.448057   3.732163   4.235311   3.737787   2.469644
    27  C    1.419013   2.445796   2.816034   2.422369   1.419534
    28  C    2.828911   4.226436   5.079603   4.885187   3.766110
    29  H    7.116538   7.328147   6.412601   5.033776   4.662802
    30  H    7.564587   8.194135   7.630499   6.264469   5.357037
    31  H    7.532006   8.505889   8.326423   7.111522   5.864787
    32  H    8.301684   9.504886   9.649972   8.624640   7.242769
    33  H    8.532384   9.882014  10.355600   9.587350   8.170511
    34  H    7.009822   8.406609   9.145932   8.664545   7.315708
    35  H    6.119176   7.482457   8.467632   8.299634   7.110721
    36  H    5.806132   6.968962   8.203541   8.439239   7.541149
    37  H    4.048483   4.937736   6.281081   6.824447   6.258578
    38  H    2.150555   2.630159   4.011231   4.794342   4.605943
    39  H    2.167017   1.087636   2.134296   3.381255   3.925632
    40  H    3.399170   2.147934   1.086616   2.154535   3.442824
    41  H    3.861671   3.360198   2.113132   1.085922   2.187458
    42  H    5.158204   5.096677   4.051405   2.714942   2.782710
                   21         22         23         24         25
    21  C    0.000000
    22  C    1.418361   0.000000
    23  C    1.419479   2.422357   0.000000
    24  C    2.469588   3.737812   1.419837   0.000000
    25  C    3.766020   4.885176   2.463615   1.419794   0.000000
    26  C    2.848919   4.265440   2.447884   1.409286   2.447850
    27  C    2.460487   3.784438   2.821413   2.447850   3.745595
    28  C    4.268755   5.685014   3.745672   2.447884   2.821413
    29  H    3.442871   2.154482   3.902613   5.321968   6.138710
    30  H    3.925573   3.381143   3.436640   4.612881   4.864322
    31  H    4.605879   4.794277   3.422311   3.899029   3.422359
    32  H    6.258524   6.824411   4.864312   4.612905   3.436727
    33  H    7.541053   8.439190   6.138665   5.321925   3.902616
    34  H    7.110577   8.299562   5.877883   4.645560   3.423009
    35  H    7.315706   8.664624   6.354569   4.949141   4.188973
    36  H    8.170469   9.587393   7.561243   6.169077   5.892265
    37  H    7.242709   8.624665   7.060406   5.861670   6.164245
    38  H    5.864779   7.111588   6.139252   5.308315   6.139201
    39  H    5.357093   6.264579   6.164326   5.861707   7.060390
    40  H    4.662841   5.033848   5.892303   6.169085   7.561203
    41  H    2.782727   2.714988   4.188941   4.949093   6.354483
    42  H    2.187597   1.086022   3.423079   4.645647   5.877945
                   26         27         28         29         30
    26  C    0.000000
    27  C    1.419794   0.000000
    28  C    1.419837   2.463615   0.000000
    29  H    6.169093   5.892282   7.561259   0.000000
    30  H    5.861670   6.164245   7.060406   2.457540   0.000000
    31  H    5.308315   6.139201   6.139252   4.699810   2.405452
    32  H    5.861715   7.060397   6.164338   7.062605   4.810322
    33  H    6.169087   7.561205   5.892309   9.113876   7.062574
    34  H    4.949093   6.354483   4.188941   9.504287   7.909759
    35  H    4.645647   5.877945   3.423079  10.227714   9.041286
    36  H    5.321953   6.138697   3.902598  11.435718  10.676748
    37  H    4.612881   4.864322   3.436640  10.676765  10.454167
    38  H    3.899029   3.422359   3.422311   9.256748   9.552288
    39  H    4.612898   3.436717   4.864309   8.375733   9.281751
    40  H    5.321926   3.902616   6.138669   6.907428   8.375688
    41  H    4.645560   3.423009   5.877883   4.487565   6.096083
    42  H    4.949141   4.188973   6.354569   2.421745   4.240629
                   31         32         33         34         35
    31  H    0.000000
    32  H    2.405445   0.000000
    33  H    4.699780   2.457539   0.000000
    34  H    5.849937   4.240649   2.421762   0.000000
    35  H    7.297144   6.096164   4.487585   2.066385   0.000000
    36  H    9.256731   8.375733   6.907428   4.487551   2.421732
    37  H    9.552288   9.281765   8.375699   6.096083   4.240629
    38  H    9.207344   9.552329   9.256736   7.297091   5.849980
    39  H    9.552318  10.454231  10.676772   9.041246   7.909826
    40  H    9.256728  10.676772  11.435688  10.227625   9.504323
    41  H    7.297091   9.041248  10.227622   9.495442   9.267942
    42  H    5.849980   7.909824   9.504318   9.267942   9.495576
                   36         37         38         39         40
    36  H    0.000000
    37  H    2.457538   0.000000
    38  H    4.699805   2.405452   0.000000
    39  H    7.062605   4.810331   2.405454   0.000000
    40  H    9.113876   7.062586   4.699792   2.457539   0.000000
    41  H    9.504275   7.909759   5.849937   4.240632   2.421748
    42  H   10.227700   9.041286   7.297144   6.096148   4.487571
                   41         42
    41  H    0.000000
    42  H    2.066385   0.000000
 Stoichiometry    C28H14
 Framework group  D2H[C2(HCC.CCH),SG"(C24H12)]
 Deg. of freedom    21
 Full point group                 D2H     NOp   8
 Largest Abelian subgroup         D2H     NOp   8
 Largest concise Abelian subgroup D2      NOp   4
                         Standard orientation:                         
 ---------------------------------------------------------------------
 Center     Atomic      Atomic             Coordinates (Angstroms)
 Number     Number       Type             X           Y           Z
 ---------------------------------------------------------------------
      1          6           0        2.891110   -3.627281    0.000000
      2          6           0        3.553257   -2.411277    0.000000
      3          6           0        2.829584   -1.215532    0.000000
      4          6           0        3.514751   -0.000000    0.000000
      5          6           0        2.829584    1.215532   -0.000000
      6          6           0        3.553257    2.411277   -0.000000
      7          6           0        2.891110    3.627281    0.000000
      8          6           0        1.498249    3.652594    0.000000
      9          6           0        0.715785    2.469627    0.000000
     10          6           0       -0.715785    2.469627   -0.000000
     11          6           0       -1.498249    3.652594   -0.000000
     12          6           0       -2.891110    3.627281    0.000000
     13          6           0       -3.553257    2.411277    0.000000
     14          6           0       -2.829584    1.215532    0.000000
     15          6           0       -3.514751    0.000000    0.000000
     16          6           0       -2.829584   -1.215532   -0.000000
     17          6           0       -3.553257   -2.411277   -0.000000
     18          6           0       -2.891110   -3.627281   -0.000000
     19          6           0       -1.498249   -3.652594    0.000000
     20          6           0       -0.715785   -2.469627    0.000000
     21          6           0        0.715785   -2.469627   -0.000000
     22          6           0        1.498249   -3.652594   -0.000000
     23          6           0        1.410728   -1.231810    0.000000
     24          6           0        0.704638   -0.000000    0.000000
     25          6           0        1.410728    1.231810    0.000000
     26          6           0       -0.704638    0.000000   -0.000000
     27          6           0       -1.410728   -1.231810   -0.000000
     28          6           0       -1.410728    1.231810    0.000000
     29          1           0        3.453714   -4.556957    0.000000
     30          1           0        4.640855   -2.405168    0.000000
     31          1           0        4.603668   -0.000000    0.000000
     32          1           0        4.640855    2.405168   -0.000000
     33          1           0        3.453714    4.556957    0.000000
     34          1           0        1.033182    4.633935    0.000000
     35          1           0       -1.033182    4.633935   -0.000000
     36          1           0       -3.453714    4.556957    0.000000
     37          1           0       -4.640855    2.405168    0.000000
     38          1           0       -4.603668    0.000000   -0.000000
     39          1           0       -4.640855   -2.405168   -0.000000
     40          1           0       -3.453714   -4.556957   -0.000000
     41          1           0       -1.033182   -4.633935   -0.000000
     42          1           0        1.033182   -4.633935   -0.000000
 ---------------------------------------------------------------------
 Rotational constants (GHZ):           0.2395441           0.2317056           0.1177798
 Standard basis: def2SVPP (5D, 7F)
 There are    90 symmetry adapted cartesian basis functions of AG  symmetry.
 There are    78 symmetry adapted cartesian basis functions of B1G symmetry.
 There are    30 symmetry adapted cartesian basis functions of B2G symmetry.
 There are    26 symmetry adapted cartesian basis functions of B3G symmetry.
 There are    26 symmetry adapted cartesian basis functions of AU  symmetry.
 There are    30 symmetry adapted cartesian basis functions of B1U symmetry.
 There are    78 symmetry adapted cartesian basis functions of B2U symmetry.
 There are    90 symmetry adapted cartesian basis functions of B3U symmetry.
 There are    82 symmetry adapted basis functions of AG  symmetry.
 There are    72 symmetry adapted basis functions of B1G symmetry.
 There are    30 symmetry adapted basis functions of B2G symmetry.
 There are    26 symmetry adapted basis functions of B3G symmetry.
 There are    26 symmetry adapted basis functions of AU  symmetry.
 There are    30 symmetry adapted basis functions of B1U symmetry.
 There are    72 symmetry adapted basis functions of B2U symmetry.
 There are    82 symmetry adapted basis functions of B3U symmetry.
   420 basis functions,   756 primitive gaussians,   448 cartesian basis functions
    91 alpha electrons       91 beta electrons
       nuclear repulsion energy      2332.7929905762 Hartrees.
 NAtoms=   42 NActive=   42 NUniq=   12 SFac= 4.00D+00 NAtFMM=   60 NAOKFM=F Big=F
 Integral buffers will be    131072 words long.
 Raffenetti 2 integral format.
 Two-electron integral symmetry is turned on.
 Nuclear repulsion after empirical dispersion term =     2332.6683352686 Hartrees.
 One-electron integrals computed using PRISM.
   8 Symmetry operations used in ECPInt.
 ECPInt:  NShTT=   19306 NPrTT=   77434 LenC2=   17676 LenP2D=   47074.
 LDataN:  DoStor=T MaxTD1= 4 Len=   56
 NBasis=   420 RedAO= T EigKep=  7.24D-05  NBF=    82    72    30    26    26    30    72    82
 NBsUse=   420 1.00D-06 EigRej= -1.00D+00 NBFU=    82    72    30    26    26    30    72    82
 ExpMin= 1.22D-01 ExpMax= 1.24D+03 ExpMxC= 1.86D+02 IAcc=3 IRadAn=         5 AccDes= 0.00D+00
 Harris functional with IExCor=  402 and IRadAn=       5 diagonalized for initial guess.
 HarFok:  IExCor=  402 AccDes= 0.00D+00 IRadAn=         5 IDoV= 1 UseB2=F ITyADJ=14
 ICtDFT=  3500011 ScaDFX=  1.000000  1.000000  1.000000  1.000000
 FoFCou: FMM=F IPFlag=           0 FMFlag=      100000 FMFlg1=           0
         NFxFlg=           0 DoJE=T BraDBF=F KetDBF=T FulRan=T
         wScrn=  0.000000 ICntrl=       500 IOpCl=  0 I1Cent=   200000004 NGrid=           0
         NMat0=    1 NMatS0=      1 NMatT0=    0 NMatD0=    1 NMtDS0=    0 NMtDT0=    0
 Petite list used in FoFCou.
 Initial guess orbital symmetries:
       Occupied  (B3U) (B1G) (B2U) (AG) (B3U) (AG) (B1G) (B2U)
                 (B3U) (AG) (B1G) (B3U) (B2U) (AG) (B3U) (B1G)
                 (B2U) (AG) (AG) (B3U) (B1G) (B3U) (B2U) (AG) (AG)
                 (B3U) (B2U) (B1G) (AG) (B3U) (B2U) (B1G) (AG)
                 (AG) (B3U) (B2U) (B3U) (B2U) (B1G) (AG) (B1G)
                 (B3U) (AG) (B2U) (B3U) (AG) (B2U) (B1G) (B1G)
                 (AG) (B2U) (B3U) (AG) (B3U) (B1G) (B2U) (AG) (B3U)
                 (B2U) (B3U) (AG) (B1G) (B1G) (B2U) (B2U) (AG)
                 (B1G) (B1U) (AG) (B3U) (AG) (B2G) (B3U) (B1G)
                 (B3G) (B2U) (B3U) (B2U) (AU) (AG) (B1G) (B1U)
                 (B1U) (B2G) (B3G) (B2G) (B3G) (AU) (B1U) (AU)
                 (B2G)
       Virtual   (B1U) (B3G) (B2G) (B3G) (B1U) (AU) (AU) (B1U)
                 (B2G) (B2G) (B3G) (AG) (B2U) (B3U) (B1G) (AG)
                 (B3U) (B2U) (B1U) (AU) (AG) (B3U) (B2U) (B1G)
                 (AG) (AG) (B2U) (B3U) (B1G) (B2U) (B2G) (AG) (B3U)
                 (B1G) (B3U) (AG) (B2U) (B1G) (B3U) (B2U) (AG)
                 (B3U) (B1G) (B2U) (AG) (B3U) (AG) (B1G) (B2U)
                 (B3U) (B1G) (AG) (B1G) (B3U) (AG) (B2U) (B2U)
                 (B1G) (B3U) (B3U) (AG) (B1G) (B3U) (B2U) (AG)
                 (AG) (B1G) (B1U) (B2U) (B1G) (B2G) (B3G) (AG)
                 (B3U) (B3U) (B2U) (AU) (AG) (B1U) (B2U) (B1U)
                 (B1G) (B3U) (B2U) (B2G) (AG) (AG) (B3G) (B3U)
                 (B2G) (B2U) (B1G) (B3G) (B1U) (AU) (B3U) (B1U)
                 (B1G) (B3G) (AU) (AG) (B2G) (B3U) (B2U) (B1G)
                 (AG) (B2G) (B3U) (B1U) (AG) (B2U) (B1G) (B3U)
                 (B2U) (AU) (B1G) (B3G) (AG) (AG) (B1U) (B3U) (B2U)
                 (B3U) (B1G) (B3U) (B1G) (B2U) (B2G) (AG) (AU)
                 (B2U) (B2G) (B1G) (B3U) (AG) (B3G) (AG) (B1G)
                 (B2U) (B3U) (AG) (B1U) (AU) (B1G) (B3U) (AG) (B3U)
                 (B2U) (B2U) (AG) (B3U) (B1G) (B2G) (B2U) (B1G)
                 (AG) (B2U) (B1G) (B3U) (AG) (B3U) (B3U) (B3G)
                 (B1U) (B1G) (B2U) (AG) (AU) (B3G) (B2U) (B2G)
                 (B3U) (B1U) (B1G) (AU) (AG) (B3G) (B2U) (B3U)
                 (AG) (B1U) (B1G) (B3G) (AU) (B1G) (B2G) (B3U)
                 (B1U) (AG) (B2U) (B1G) (B3G) (AU) (B2G) (B1U)
                 (B2U) (B1G) (B3G) (B1U) (B3U) (B2G) (AU) (AG)
                 (B3U) (B2U) (B1G) (B3U) (AG) (B2U) (AG) (AG) (B1G)
                 (B2G) (B3U) (B1G) (AG) (B3U) (B2U) (AU) (B2U)
                 (B3U) (B1U) (B3G) (B1G) (B2G) (AG) (AG) (AG) (B2U)
                 (B3U) (B2U) (B1G) (B3U) (AU) (B2G) (B1G) (B1U)
                 (B2U) (B3U) (AG) (AG) (B3G) (B2U) (B2U) (B1G)
                 (AG) (B3U) (B1G) (B2U) (B1G) (B1U) (B3U) (AG)
                 (B2G) (AU) (B3U) (AG) (B1G) (B3G) (B3U) (B1U)
                 (AG) (B2G) (B3G) (B1G) (B2U) (B3U) (AU) (B3G)
                 (B1U) (B1U) (B2G) (B3G) (B2U) (AU) (B3U) (B2G)
                 (AU) (B1G) (B1U) (AG) (B2G) (B2U) (AU) (B2U) (AG)
                 (B3U) (B1G) (B3G) (B1G) (B2U) (B3U) (B2G) (B1G)
                 (AG) (AG) (B1U) (B2U) (B3U) (AU) (B3G) (AG) (B3U)
                 (B2U) (B3U) (B2G) (AU) (B1G) (AG) (B1G) (B2U)
                 (AG) (B3U) (B1G) (AG) (B2U) (B1G) (B2U) (B3U)
                 (B3U) (B1G) (B3U) (AG) (B1G) (B2U) (AG) (B3U)
                 (B3U) (B1G)
 The electronic state of the initial guess is 1-AG.
 Requested convergence on RMS density matrix=1.00D-08 within 128 cycles.
 Requested convergence on MAX density matrix=1.00D-06.
 Requested convergence on             energy=1.00D-06.
 No special actions if energy rises.
 Integral accuracy reduced to 1.0D-05 until final iterations.
 Rare condition: small coef for last iteration:  0.000D+00
 Rare condition: small coef for last iteration:  0.000D+00
 Problem detected with inexpensive integrals.
 Switching to full accuracy and repeating last cycle.
 SCF Done:  E(RB3LYP) =  -1074.81622855     A.U. after   18 cycles
            NFock= 18  Conv=0.65D-08     -V/T= 2.0102

 **********************************************************************

            Population analysis using the SCF Density.

 **********************************************************************

 Orbital symmetries:
       Occupied  (AG) (B2U) (B3U) (B1G) (AG) (B3U) (B1G) (B2U)
                 (AG) (B3U) (B1G) (B3U) (AG) (B2U) (B3U) (B1G)
                 (B2U) (AG) (B1G) (B3U) (B2U) (AG) (B3U) (AG) (B1G)
                 (B2U) (B3U) (AG) (AG) (B3U) (B2U) (B1G) (AG) (AG)
                 (B3U) (B2U) (B3U) (B2U) (B1G) (AG) (B1G) (B3U)
                 (AG) (B2U) (AG) (B3U) (B2U) (B1G) (AG) (B1G) (B3U)
                 (B2U) (AG) (B3U) (B1G) (B2U) (AG) (B2U) (B3U)
                 (AG) (B3U) (B1G) (B1U) (B1G) (B2U) (B2U) (AG)
                 (AG) (B1G) (B2G) (B3G) (B3U) (AG) (B3U) (B1G)
                 (B2U) (AU) (B3U) (B2U) (B1U) (B1U) (AG) (B1G)
                 (B2G) (B3G) (B2G) (B3G) (AU) (B1U) (AU) (B2G)
       Virtual   (B1U) (B3G) (B2G) (B3G) (B1U) (AU) (AU) (B1U)
                 (AG) (B2U) (B3U) (B2G) (B1G) (AG) (B2G) (B3U)
                 (B2U) (AG) (B1G) (B3G) (B2U) (B3U) (AG) (B1U)
                 (AU) (B1G) (B3U) (B2U) (AG) (B1G) (B2U) (B3U)
                 (AG) (B2U) (B3U) (AG) (B1G) (B2G) (B3U) (AG) (B2U)
                 (B1G) (B2U) (B3U) (AG) (AG) (B3U) (B2U) (B3U)
                 (AG) (B1G) (AG) (B3U) (B1G) (B2U) (B1G) (B3U)
                 (AG) (B1G) (B2U) (B3U) (B1G) (AG) (B2U) (B1G)
                 (B1U) (B3U) (B2U) (B2G) (B3G) (AG) (AG) (B2U)
                 (B1G) (AU) (B3U) (AG) (B1U) (B1U) (B3U) (B2U)
                 (AG) (B3U) (B2G) (B2U) (B3G) (B1G) (B2G) (AG)
                 (B3G) (B3U) (B1U) (AU) (B2U) (B1U) (B1G) (B3G)
                 (B3U) (AU) (B1G) (B2G) (AG) (B2G) (B1U) (B2U)
                 (B3U) (AG) (B3U) (AU) (B1G) (B3G) (AG) (B2U) (B1G)
                 (B1U) (B3U) (B2U) (AG) (B1G) (B2G) (B2U) (B3U)
                 (AU) (B3U) (B1G) (B2G) (AG) (B1G) (B2U) (B3G)
                 (B3U) (AG) (AG) (B2U) (B1G) (B3U) (AG) (B1G) (B2U)
                 (B3U) (B1U) (AU) (AG) (B2U) (B1G) (B3U) (B3U)
                 (AG) (AG) (B2U) (B1G) (B3U) (B2G) (B1G) (B2U)
                 (AG) (B2U) (B1G) (B3U) (AG) (B3U) (B3U) (B1G)
                 (B2U) (AG) (B3G) (B1U) (B3U) (B2U) (AU) (B3G)
                 (B1G) (AG) (B2G) (B1U) (AU) (B3G) (B3U) (B2U)
                 (AG) (B1G) (B1U) (B3G) (B3U) (B1G) (AG) (B2U)
                 (AU) (B2G) (B1G) (B1U) (B2U) (B1G) (B3U) (AG)
                 (AU) (B3G) (B2G) (B1U) (B3G) (B1U) (B2G) (AU)
                 (B3U) (B2U) (B1G) (B3U) (AG) (AG) (B2U) (B1G)
                 (AG) (B2G) (B3U) (B3U) (AU) (AG) (B1G) (B2U) (B1U)
                 (B2U) (B3G) (B3U) (B2G) (B1G) (AG) (AG) (AG) (B2U)
                 (B2U) (B3U) (AU) (B3U) (B1G) (B2G) (B1U) (B1G)
                 (B2U) (B3U) (AG) (AG) (B3G) (B2U) (B2U) (B1G)
                 (AG) (B3U) (B1G) (B2U) (B1U) (B1G) (B3U) (AG)
                 (B2G) (AU) (B3U) (B3G) (B1G) (AG) (B3U) (B1U)
                 (AG) (B2G) (B3G) (B1G) (AU) (B3G) (B2U) (B3U)
                 (B1U) (B1U) (B2G) (B3G) (B2U) (AU) (B2G) (B3U)
                 (AU) (B1G) (B1U) (AG) (B2G) (AU) (B2U) (B2U) (AG)
                 (B3U) (B1G) (B3G) (B1G) (B2G) (B2U) (B3U) (AG)
                 (B1U) (B1G) (B2U) (AU) (B3U) (AG) (B3G) (AG) (B3U)
                 (B2U) (B2G) (AU) (B3U) (B1G) (B1G) (AG) (B2U)
                 (AG) (B3U) (B1G) (AG) (B2U) (B1G) (B3U) (B2U)
                 (B3U) (B1G) (B3U) (AG) (B1G) (B2U) (AG) (B3U)
                 (B3U) (B1G)
 The electronic state is 1-AG.
 Alpha  occ. eigenvalues --  -10.20263 -10.20261 -10.20240 -10.20238 -10.19865
 Alpha  occ. eigenvalues --  -10.19855 -10.19849 -10.19830 -10.19815 -10.19798
 Alpha  occ. eigenvalues --  -10.19520 -10.19519 -10.19517 -10.19516 -10.19127
 Alpha  occ. eigenvalues --  -10.19126 -10.19112 -10.19112 -10.18986 -10.18986
 Alpha  occ. eigenvalues --  -10.18985 -10.18985 -10.18814 -10.18813 -10.18812
 Alpha  occ. eigenvalues --  -10.18811 -10.18731 -10.18729  -0.90728  -0.87647
 Alpha  occ. eigenvalues --   -0.87139  -0.84457  -0.82337  -0.81464  -0.79263
 Alpha  occ. eigenvalues --   -0.78687  -0.75332  -0.74921  -0.73628  -0.73492
 Alpha  occ. eigenvalues --   -0.72126  -0.67105  -0.66497  -0.64057  -0.63933
 Alpha  occ. eigenvalues --   -0.63512  -0.62370  -0.59634  -0.56441  -0.56368
 Alpha  occ. eigenvalues --   -0.55163  -0.54444  -0.53315  -0.51984  -0.50355
 Alpha  occ. eigenvalues --   -0.48499  -0.48003  -0.47676  -0.47382  -0.45949
 Alpha  occ. eigenvalues --   -0.45849  -0.44188  -0.43634  -0.43367  -0.43322
 Alpha  occ. eigenvalues --   -0.42594  -0.42516  -0.41017  -0.40212  -0.39994
 Alpha  occ. eigenvalues --   -0.39522  -0.39355  -0.39170  -0.37750  -0.37241
 Alpha  occ. eigenvalues --   -0.36194  -0.36161  -0.36020  -0.35093  -0.34001
 Alpha  occ. eigenvalues --   -0.33202  -0.32610  -0.31978  -0.30272  -0.29823
 Alpha  occ. eigenvalues --   -0.26954  -0.25688  -0.25158  -0.24399  -0.22755
 Alpha  occ. eigenvalues --   -0.16322
 Alpha virt. eigenvalues --   -0.10634  -0.04501  -0.02904  -0.02701  -0.01283
 Alpha virt. eigenvalues --   -0.00696   0.03837   0.04005   0.05917   0.06466
 Alpha virt. eigenvalues --    0.06988   0.07941   0.07951   0.08646   0.08881
 Alpha virt. eigenvalues --    0.10001   0.10329   0.12100   0.12709   0.12907
 Alpha virt. eigenvalues --    0.13762   0.15504   0.16793   0.18598   0.19089
 Alpha virt. eigenvalues --    0.19888   0.19903   0.22289   0.22345   0.24154
 Alpha virt. eigenvalues --    0.24570   0.24809   0.24878   0.25727   0.26059
 Alpha virt. eigenvalues --    0.26549   0.27024   0.27136   0.27548   0.28451
 Alpha virt. eigenvalues --    0.29206   0.29746   0.30080   0.30594   0.30957
 Alpha virt. eigenvalues --    0.31885   0.32605   0.32713   0.33666   0.34279
 Alpha virt. eigenvalues --    0.34307   0.34731   0.35393   0.35525   0.36102
 Alpha virt. eigenvalues --    0.36659   0.38768   0.39030   0.39853   0.39956
 Alpha virt. eigenvalues --    0.40494   0.42393   0.43008   0.43561   0.43820
 Alpha virt. eigenvalues --    0.43994   0.44392   0.44694   0.45789   0.45888
 Alpha virt. eigenvalues --    0.45954   0.47128   0.47591   0.47648   0.48121
 Alpha virt. eigenvalues --    0.48408   0.48465   0.48704   0.49180   0.50009
 Alpha virt. eigenvalues --    0.50867   0.50889   0.51138   0.51402   0.51793
 Alpha virt. eigenvalues --    0.52191   0.52361   0.53435   0.53766   0.54542
 Alpha virt. eigenvalues --    0.55177   0.55346   0.56585   0.57393   0.58356
 Alpha virt. eigenvalues --    0.58784   0.59308   0.59977   0.60782   0.61982
 Alpha virt. eigenvalues --    0.62618   0.64183   0.64871   0.65093   0.66245
 Alpha virt. eigenvalues --    0.66261   0.66914   0.67008   0.67702   0.68010
 Alpha virt. eigenvalues --    0.68355   0.69195   0.69466   0.69565   0.69678
 Alpha virt. eigenvalues --    0.70248   0.70928   0.71385   0.72295   0.72978
 Alpha virt. eigenvalues --    0.73058   0.74000   0.74963   0.75218   0.75299
 Alpha virt. eigenvalues --    0.75894   0.76167   0.76785   0.76962   0.77444
 Alpha virt. eigenvalues --    0.78316   0.78451   0.79387   0.80570   0.81309
 Alpha virt. eigenvalues --    0.81659   0.82467   0.82825   0.83063   0.83506
 Alpha virt. eigenvalues --    0.84351   0.84897   0.85683   0.87886   0.88251
 Alpha virt. eigenvalues --    0.88259   0.88929   0.89886   0.92673   0.93523
 Alpha virt. eigenvalues --    0.94342   0.96578   0.97577   0.99699   1.01502
 Alpha virt. eigenvalues --    1.06406   1.09597   1.09681   1.09811   1.14188
 Alpha virt. eigenvalues --    1.14394   1.16405   1.17844   1.18479   1.19071
 Alpha virt. eigenvalues --    1.19337   1.19541   1.22269   1.22413   1.23336
 Alpha virt. eigenvalues --    1.23757   1.23842   1.24628   1.24881   1.25182
 Alpha virt. eigenvalues --    1.27493   1.29568   1.31635   1.31657   1.32002
 Alpha virt. eigenvalues --    1.33269   1.35485   1.36512   1.37062   1.37745
 Alpha virt. eigenvalues --    1.38135   1.38946   1.39417   1.40732   1.41034
 Alpha virt. eigenvalues --    1.41124   1.43161   1.43461   1.44323   1.44873
 Alpha virt. eigenvalues --    1.45730   1.45737   1.46140   1.46284   1.48150
 Alpha virt. eigenvalues --    1.48342   1.48432   1.48554   1.49789   1.55083
 Alpha virt. eigenvalues --    1.56355   1.56873   1.59315   1.66127   1.67209
 Alpha virt. eigenvalues --    1.67492   1.67887   1.69958   1.71757   1.73489
 Alpha virt. eigenvalues --    1.73560   1.73680   1.73716   1.74492   1.75272
 Alpha virt. eigenvalues --    1.75941   1.76909   1.77157   1.77473   1.78785
 Alpha virt. eigenvalues --    1.81197   1.82090   1.83329   1.85228   1.85490
 Alpha virt. eigenvalues --    1.85507   1.86501   1.86537   1.86655   1.89587
 Alpha virt. eigenvalues --    1.90193   1.91346   1.92550   1.93853   1.94530
 Alpha virt. eigenvalues --    1.99143   1.99226   2.00760   2.04485   2.06489
 Alpha virt. eigenvalues --    2.07880   2.07910   2.08191   2.09118   2.09737
 Alpha virt. eigenvalues --    2.09951   2.10356   2.12886   2.13137   2.15008
 Alpha virt. eigenvalues --    2.15921   2.15939   2.16125   2.16307   2.16372
 Alpha virt. eigenvalues --    2.16998   2.21980   2.21983   2.22489   2.23277
 Alpha virt. eigenvalues --    2.24467   2.24789   2.24878   2.25002   2.25680
 Alpha virt. eigenvalues --    2.27687   2.27896   2.28079   2.30864   2.31951
 Alpha virt. eigenvalues --    2.33018   2.33605   2.33725   2.37489   2.37920
 Alpha virt. eigenvalues --    2.39354   2.40026   2.44539   2.45924   2.49291
 Alpha virt. eigenvalues --    2.49734   2.50922   2.52604   2.53431   2.56645
 Alpha virt. eigenvalues --    2.58561   2.59515   2.59937   2.60536   2.62075
 Alpha virt. eigenvalues --    2.62582   2.62916   2.63310   2.63754   2.64000
 Alpha virt. eigenvalues --    2.65102   2.67080   2.71247   2.73236   2.73606
 Alpha virt. eigenvalues --    2.73848   2.75066   2.75135   2.77752   2.78449
 Alpha virt. eigenvalues --    2.79687   2.79845   2.82264   2.84274   2.86901
 Alpha virt. eigenvalues --    2.87255   2.93583   2.95501   2.96963   3.02336
 Alpha virt. eigenvalues --    3.09799   3.13564   3.25705   3.32978   3.37986
 Alpha virt. eigenvalues --    3.40910   3.41250   3.62169   3.62939
          Condensed to atoms (all electrons):
               1          2          3          4          5          6
     1  C    5.254108   0.145749   0.173040   0.026601  -0.002089   0.000023
     2  C    0.145749   5.595807   0.164900  -0.189184   0.024251  -0.001367
     3  C    0.173040   0.164900   5.520687   0.144677   0.184708   0.024251
     4  C    0.026601  -0.189184   0.144677   5.966625   0.144677  -0.189184
     5  C   -0.002089   0.024251   0.184708   0.144677   5.520687   0.164900
     6  C    0.000023  -0.001367   0.024251  -0.189184   0.164900   5.595807
     7  C   -0.000000   0.000023  -0.002089   0.026601   0.173040   0.145749
     8  C    0.000000  -0.000005   0.000478  -0.003368  -0.177662   0.171522
     9  C    0.000005   0.000067  -0.007533   0.041486  -0.011897  -0.206745
    10  C   -0.000001   0.000004  -0.000235   0.000229   0.030153  -0.007083
    11  C    0.000000  -0.000000  -0.000004   0.000009  -0.000646   0.000078
    12  C   -0.000000   0.000000   0.000000  -0.000001   0.000002   0.000013
    13  C    0.000000   0.000000  -0.000000   0.000000  -0.000002  -0.000002
    14  C    0.000000  -0.000000  -0.000000   0.000005   0.000114  -0.000002
    15  C   -0.000001   0.000000   0.000005  -0.000002   0.000005   0.000000
    16  C    0.000002  -0.000002   0.000114   0.000005  -0.000000  -0.000000
    17  C    0.000013  -0.000002  -0.000002   0.000000  -0.000000   0.000000
    18  C   -0.000149   0.000013   0.000002  -0.000001   0.000000   0.000000
    19  C    0.000374   0.000078  -0.000646   0.000009  -0.000004  -0.000000
    20  C    0.032616  -0.007083   0.030153   0.000229  -0.000235   0.000004
    21  C    0.167135  -0.206745  -0.011897   0.041486  -0.007533   0.000067
    22  C    0.133646   0.171522  -0.177662  -0.003368   0.000478  -0.000005
    23  C   -0.180813   0.071397   0.019986   0.064299  -0.167812  -0.001755
    24  C   -0.008930   0.039368   0.016560  -0.208681   0.016560   0.039368
    25  C    0.000502  -0.001755  -0.167812   0.064299   0.019986   0.071397
    26  C   -0.000565   0.000464   0.037620  -0.010865   0.037620   0.000464
    27  C    0.001113  -0.000513  -0.002193  -0.000099   0.000018   0.000005
    28  C   -0.000004   0.000005   0.000018  -0.000099  -0.002193  -0.000513
    29  H    0.436601  -0.083056   0.016011  -0.000676   0.000013  -0.000000
    30  H   -0.084504   0.444518  -0.083355  -0.022904   0.001350  -0.000059
    31  H    0.001049  -0.019618  -0.086435   0.447272  -0.086435  -0.019618
    32  H    0.000001  -0.000059   0.001350  -0.022904  -0.083355   0.444518
    33  H    0.000000  -0.000000   0.000013  -0.000676   0.016011  -0.083056
    34  H   -0.000000   0.000000   0.000004  -0.000013  -0.002326   0.017285
    35  H    0.000000   0.000000  -0.000001   0.000002   0.000049  -0.000120
    36  H    0.000000   0.000000  -0.000000   0.000000   0.000000   0.000000
    37  H    0.000000  -0.000000   0.000000   0.000000  -0.000000   0.000000
    38  H   -0.000000   0.000000  -0.000000   0.000000  -0.000000   0.000000
    39  H   -0.000000   0.000000  -0.000000   0.000000   0.000000  -0.000000
    40  H   -0.000001   0.000000   0.000000   0.000000  -0.000000   0.000000
    41  H    0.001954  -0.000120   0.000049   0.000002  -0.000001   0.000000
    42  H   -0.092945   0.017285  -0.002326  -0.000013   0.000004   0.000000
               7          8          9         10         11         12
     1  C   -0.000000   0.000000   0.000005  -0.000001   0.000000  -0.000000
     2  C    0.000023  -0.000005   0.000067   0.000004  -0.000000   0.000000
     3  C   -0.002089   0.000478  -0.007533  -0.000235  -0.000004   0.000000
     4  C    0.026601  -0.003368   0.041486   0.000229   0.000009  -0.000001
     5  C    0.173040  -0.177662  -0.011897   0.030153  -0.000646   0.000002
     6  C    0.145749   0.171522  -0.206745  -0.007083   0.000078   0.000013
     7  C    5.254108   0.133646   0.167135   0.032616   0.000374  -0.000149
     8  C    0.133646   5.534590   0.261753  -0.169661  -0.027305   0.000374
     9  C    0.167135   0.261753   5.796015   0.181661  -0.169661   0.032616
    10  C    0.032616  -0.169661   0.181661   5.796015   0.261753   0.167135
    11  C    0.000374  -0.027305  -0.169661   0.261753   5.534590   0.133646
    12  C   -0.000149   0.000374   0.032616   0.167135   0.133646   5.254108
    13  C    0.000013   0.000078  -0.007083  -0.206745   0.171522   0.145749
    14  C    0.000002  -0.000646   0.030153  -0.011897  -0.177662   0.173040
    15  C   -0.000001   0.000009   0.000229   0.041486  -0.003368   0.026601
    16  C    0.000000  -0.000004  -0.000235  -0.007533   0.000478  -0.002089
    17  C    0.000000  -0.000000   0.000004   0.000067  -0.000005   0.000023
    18  C   -0.000000   0.000000  -0.000001   0.000005   0.000000  -0.000000
    19  C    0.000000  -0.000000   0.000001   0.000004  -0.000000   0.000000
    20  C   -0.000001   0.000001  -0.000396   0.000860   0.000004   0.000005
    21  C    0.000005   0.000004   0.000860  -0.000396   0.000001  -0.000001
    22  C    0.000000  -0.000000   0.000004   0.000001  -0.000000   0.000000
    23  C    0.000502  -0.000645   0.033100  -0.004197   0.000129  -0.000004
    24  C   -0.008930   0.028420  -0.059375  -0.160800  -0.000863  -0.000565
    25  C   -0.180813   0.039476   0.092680  -0.020375   0.020060   0.001113
    26  C   -0.000565  -0.000863  -0.160800  -0.059375   0.028420  -0.008930
    27  C   -0.000004   0.000129  -0.004197   0.033100  -0.000645   0.000502
    28  C    0.001113   0.020060  -0.020375   0.092680   0.039476  -0.180813
    29  H    0.000000   0.000000  -0.000000   0.000000  -0.000000   0.000000
    30  H    0.000001  -0.000000  -0.000000   0.000000  -0.000000   0.000000
    31  H    0.001049  -0.000059  -0.000349   0.000013   0.000000  -0.000000
    32  H   -0.084504   0.016081  -0.001674   0.000043   0.000000  -0.000000
    33  H    0.436601  -0.079858   0.015631  -0.000385  -0.000004  -0.000001
    34  H   -0.092945   0.424465  -0.040037  -0.052417   0.012247   0.001954
    35  H    0.001954   0.012247  -0.052417  -0.040037   0.424465  -0.092945
    36  H   -0.000001  -0.000004  -0.000385   0.015631  -0.079858   0.436601
    37  H   -0.000000   0.000000   0.000043  -0.001674   0.016081  -0.084504
    38  H   -0.000000   0.000000   0.000013  -0.000349  -0.000059   0.001049
    39  H    0.000000  -0.000000   0.000000  -0.000000  -0.000000   0.000001
    40  H    0.000000  -0.000000   0.000000  -0.000000   0.000000   0.000000
    41  H    0.000000  -0.000000   0.000000  -0.000000   0.000000  -0.000000
    42  H   -0.000000   0.000000  -0.000000   0.000000  -0.000000   0.000000
              13         14         15         16         17         18
     1  C    0.000000   0.000000  -0.000001   0.000002   0.000013  -0.000149
     2  C    0.000000  -0.000000   0.000000  -0.000002  -0.000002   0.000013
     3  C   -0.000000  -0.000000   0.000005   0.000114  -0.000002   0.000002
     4  C    0.000000   0.000005  -0.000002   0.000005   0.000000  -0.000001
     5  C   -0.000002   0.000114   0.000005  -0.000000  -0.000000   0.000000
     6  C   -0.000002  -0.000002   0.000000  -0.000000   0.000000   0.000000
     7  C    0.000013   0.000002  -0.000001   0.000000   0.000000  -0.000000
     8  C    0.000078  -0.000646   0.000009  -0.000004  -0.000000   0.000000
     9  C   -0.007083   0.030153   0.000229  -0.000235   0.000004  -0.000001
    10  C   -0.206745  -0.011897   0.041486  -0.007533   0.000067   0.000005
    11  C    0.171522  -0.177662  -0.003368   0.000478  -0.000005   0.000000
    12  C    0.145749   0.173040   0.026601  -0.002089   0.000023  -0.000000
    13  C    5.595807   0.164900  -0.189184   0.024251  -0.001367   0.000023
    14  C    0.164900   5.520687   0.144677   0.184708   0.024251  -0.002089
    15  C   -0.189184   0.144677   5.966625   0.144677  -0.189184   0.026601
    16  C    0.024251   0.184708   0.144677   5.520687   0.164900   0.173040
    17  C   -0.001367   0.024251  -0.189184   0.164900   5.595807   0.145749
    18  C    0.000023  -0.002089   0.026601   0.173040   0.145749   5.254108
    19  C   -0.000005   0.000478  -0.003368  -0.177662   0.171522   0.133646
    20  C    0.000067  -0.007533   0.041486  -0.011897  -0.206745   0.167135
    21  C    0.000004  -0.000235   0.000229   0.030153  -0.007083   0.032616
    22  C   -0.000000  -0.000004   0.000009  -0.000646   0.000078   0.000374
    23  C    0.000005   0.000018  -0.000099  -0.002193  -0.000513   0.001113
    24  C    0.000464   0.037620  -0.010865   0.037620   0.000464  -0.000565
    25  C   -0.000513  -0.002193  -0.000099   0.000018   0.000005  -0.000004
    26  C    0.039368   0.016560  -0.208681   0.016560   0.039368  -0.008930
    27  C   -0.001755  -0.167812   0.064299   0.019986   0.071397  -0.180813
    28  C    0.071397   0.019986   0.064299  -0.167812  -0.001755   0.000502
    29  H    0.000000  -0.000000   0.000000   0.000000   0.000000  -0.000001
    30  H   -0.000000   0.000000   0.000000  -0.000000   0.000000  -0.000000
    31  H    0.000000  -0.000000   0.000000  -0.000000   0.000000  -0.000000
    32  H    0.000000  -0.000000   0.000000   0.000000  -0.000000   0.000000
    33  H    0.000000   0.000000   0.000000  -0.000000   0.000000   0.000000
    34  H   -0.000120   0.000049   0.000002  -0.000001   0.000000   0.000000
    35  H    0.017285  -0.002326  -0.000013   0.000004   0.000000  -0.000000
    36  H   -0.083056   0.016011  -0.000676   0.000013  -0.000000   0.000000
    37  H    0.444518  -0.083355  -0.022904   0.001350  -0.000059   0.000001
    38  H   -0.019618  -0.086435   0.447272  -0.086435  -0.019618   0.001049
    39  H   -0.000059   0.001350  -0.022904  -0.083355   0.444518  -0.084504
    40  H   -0.000000   0.000013  -0.000676   0.016011  -0.083056   0.436601
    41  H    0.000000   0.000004  -0.000013  -0.002326   0.017285  -0.092945
    42  H    0.000000  -0.000001   0.000002   0.000049  -0.000120   0.001954
              19         20         21         22         23         24
     1  C    0.000374   0.032616   0.167135   0.133646  -0.180813  -0.008930
     2  C    0.000078  -0.007083  -0.206745   0.171522   0.071397   0.039368
     3  C   -0.000646   0.030153  -0.011897  -0.177662   0.019986   0.016560
     4  C    0.000009   0.000229   0.041486  -0.003368   0.064299  -0.208681
     5  C   -0.000004  -0.000235  -0.007533   0.000478  -0.167812   0.016560
     6  C   -0.000000   0.000004   0.000067  -0.000005  -0.001755   0.039368
     7  C    0.000000  -0.000001   0.000005   0.000000   0.000502  -0.008930
     8  C   -0.000000   0.000001   0.000004  -0.000000  -0.000645   0.028420
     9  C    0.000001  -0.000396   0.000860   0.000004   0.033100  -0.059375
    10  C    0.000004   0.000860  -0.000396   0.000001  -0.004197  -0.160800
    11  C   -0.000000   0.000004   0.000001  -0.000000   0.000129  -0.000863
    12  C    0.000000   0.000005  -0.000001   0.000000  -0.000004  -0.000565
    13  C   -0.000005   0.000067   0.000004  -0.000000   0.000005   0.000464
    14  C    0.000478  -0.007533  -0.000235  -0.000004   0.000018   0.037620
    15  C   -0.003368   0.041486   0.000229   0.000009  -0.000099  -0.010865
    16  C   -0.177662  -0.011897   0.030153  -0.000646  -0.002193   0.037620
    17  C    0.171522  -0.206745  -0.007083   0.000078  -0.000513   0.000464
    18  C    0.133646   0.167135   0.032616   0.000374   0.001113  -0.000565
    19  C    5.534590   0.261753  -0.169661  -0.027305   0.020060  -0.000863
    20  C    0.261753   5.796015   0.181661  -0.169661  -0.020375  -0.160800
    21  C   -0.169661   0.181661   5.796015   0.261753   0.092680  -0.059375
    22  C   -0.027305  -0.169661   0.261753   5.534590   0.039476   0.028420
    23  C    0.020060  -0.020375   0.092680   0.039476   6.003450   0.151666
    24  C   -0.000863  -0.160800  -0.059375   0.028420   0.151666   6.082257
    25  C    0.000129  -0.004197   0.033100  -0.000645  -0.030658   0.151666
    26  C    0.028420  -0.059375  -0.160800  -0.000863  -0.055181   0.110486
    27  C    0.039476   0.092680  -0.020375   0.020060  -0.170069  -0.055181
    28  C   -0.000645   0.033100  -0.004197   0.000129   0.031748  -0.055181
    29  H   -0.000004  -0.000385   0.015631  -0.079858  -0.001135   0.000086
    30  H    0.000000   0.000043  -0.001674   0.016081   0.016707  -0.000280
    31  H    0.000000   0.000013  -0.000349  -0.000059   0.017455  -0.002046
    32  H   -0.000000   0.000000  -0.000000  -0.000000  -0.000041  -0.000280
    33  H   -0.000000   0.000000  -0.000000   0.000000  -0.000000   0.000086
    34  H   -0.000000   0.000000  -0.000000   0.000000  -0.000001  -0.000004
    35  H    0.000000  -0.000000   0.000000  -0.000000   0.000001  -0.000035
    36  H    0.000000  -0.000000   0.000000  -0.000000  -0.000000  -0.000003
    37  H   -0.000000  -0.000000   0.000000  -0.000000  -0.000000   0.000012
    38  H   -0.000059  -0.000349   0.000013   0.000000  -0.000001   0.000059
    39  H    0.016081  -0.001674   0.000043   0.000000  -0.000001   0.000012
    40  H   -0.079858   0.015631  -0.000385  -0.000004   0.000011  -0.000003
    41  H    0.424465  -0.040037  -0.052417   0.012247  -0.002454  -0.000035
[...]
 12996,0.00007423,-0.00001356,-0.00008970,0.00012552,0.00079483,-0.0037
 2865,-0.00036411,0.00015427,0.00451737,-0.00157765,-0.04051163,-0.0416
 8069,0.00019796,-0.00481338,0.00387456,0.00076405,0.00044059,-0.003718
 59,-0.00002470,0.00005819,-0.00008890,0.00002049,0.00003681,-0.0001346
 1,0.00011762,-0.00022939,0.00012516,-0.00008221,-0.00001931,0.00018690
 ,0.00001384,-0.00002582,-0.00001247,-0.00002031,-0.00002530,0.00016322
 ,0.00011718,0.00016826,-0.00114824,-0.00001491,-0.00003058,0.00016298,
 -0.00003589,0.00012804,-0.00041893,-0.00128992,-0.00070392,0.00519430,
 -0.00050803,-0.00052874,0.00529185,-0.00000083,-0.00000363,0.00000284,
 -0.00000210,-0.00000445,0.00002194,0.00000395,0.00000372,-0.00003749,-
 0.00000184,-0.00000407,0.00002201,0.00000022,-0.00000110,0.00000330,-0
 .00000680,-0.00000893,0.00007389,-0.00000037,-0.00000632,0.00004047,-0
 .00001067,-0.00003501,0.00021935,0.00004345,-0.00002405,0.00020946,0.0
 0272877,0.04503976,0.03036762,0.00009145,0.00002987,0.00002341,-0.0000
 1789,-0.00002758,-0.00000403,0.00000410,-0.00005094,-0.00000669,0.0000
 2152,0.00002192,0.00000317,-0.00007258,-0.00002136,-0.00000356,0.00002
 704,0.00002359,0.00000548,-0.00001346,-0.00000921,-0.00000297,0.000004
 73,0.00002086,0.00000347,0.00005022,-0.00002734,-0.00000052,-0.0000211
 7,-0.00010396,-0.00001945,-0.00004933,0.00004294,0.00000065,0.00002729
 ,0.00000722,0.00000402,-0.00004214,0.00002167,-0.00001524,0.00017375,-
 0.00042781,-0.00002485,0.00115416,0.00164962,0.00060038,0.00334099,0.0
 2647395,0.00367382,-0.05799994,-0.00076439,-0.00210439,0.00460536,-0.0
 2820061,-0.00396618,-0.00413843,-0.00136040,-0.00130187,-0.00082796,0.
 00007206,-0.00001246,0.00007258,-0.00011433,0.00008852,-0.00007550,0.0
 0000348,-0.00001925,-0.00004919,-0.00003906,-0.00001990,-0.00035767,0.
 00001208,-0.00004264,0.00003083,0.00014415,0.00002146,0.00044524,0.001
 31206,0.00020398,-0.00437128,0.00106372,-0.00068244,0.00017820,0.00013
 119,0.00004769,-0.00000502,-0.00000187,-0.00000087,0.00001014,-0.00000
 211,-0.00000122,0.00000105,0.00000135,-0.00000184,-0.00000551,0.000001
 68,0.00000113,0.00000246,-0.00000114,0.00000010,0.00000088,0.00000064,
 0.00000006,-0.00000391,-0.00000807,-0.00000168,0.00000408,-0.00000152,
 0.00000175,-0.00002966,-0.00001554,-0.00000520,-0.00047650,-0.00077239
 ,-0.00017211,0.05705630,-0.00000345,0.00001819,0.00001824,0.00002042,-
 0.00001148,0.00000254,0.00000882,0.00001363,0.00000281,-0.00000145,-0.
 00001563,-0.00000518,0.00002866,-0.00000814,0.00001084,-0.00000241,-0.
 00000841,-0.00000192,-0.00000130,-0.00000063,-0.00000085,0.00000483,-0
 .00000074,0.00000051,-0.00000416,0.00002102,0.00000048,-0.00003410,0.0
 0010797,0.00000755,0.00008011,0.00001619,0.00000862,0.00004902,-0.0000
 7234,-0.00000486,-0.00006436,-0.00010349,-0.00004198,0.00039678,0.0002
 4753,0.00009989,-0.00218916,0.00056719,0.00026707,-0.00230046,-0.01213
 306,-0.00242812,-0.00078000,-0.33002082,-0.04113979,0.00291573,-0.0108
 3054,-0.00191671,-0.00295602,0.00104865,-0.00121564,0.00016854,0.00059
 131,0.00018061,0.00001195,0.00002547,0.00015115,-0.00004754,-0.0000390
 4,-0.00002891,0.00001294,-0.00002600,-0.00001717,0.00024504,0.00001629
 ,0.00000880,-0.00005034,-0.00008959,-0.00001964,-0.00060692,-0.0006426
 5,-0.00017847,0.00275210,0.00073203,-0.00027443,-0.00004397,0.00017370
 ,0.00003921,-0.00000573,-0.00000806,-0.00000188,0.00000277,-0.00000857
 ,-0.00000374,0.00000244,-0.00000793,-0.00000407,0.00000168,-0.00000728
 ,0.00000125,0.00000519,-0.00000334,0.00000006,0.00000098,0.00000453,0.
 00000055,0.00000901,0.00000301,0.00000099,0.00001361,0.00000052,0.0000
 0371,0.00001519,0.00002460,0.00000448,0.00079148,0.00056831,0.00012425
 ,0.00161124,0.34967061,0.00001874,0.00002135,-0.00010967,0.00000269,-0
 .00000194,-0.00001606,0.00000167,-0.00000277,-0.00000082,-0.00000010,-
 0.00000300,0.00002001,0.00000344,0.00000617,-0.00006528,0.00000184,0.0
 0000051,0.00000393,-0.00000187,-0.00000159,0.00000419,0.00000122,0.000
 00201,-0.00000075,0.00000272,-0.00000169,0.00001486,-0.00000967,0.0000
 0103,0.00003049,0.00000585,0.00000514,0.00000936,0.00000987,-0.0000087
 6,-0.00000523,-0.00002728,-0.00003394,0.00014616,0.00009057,0.00002287
 ,-0.00018967,0.00006308,0.00062562,-0.00270831,-0.00035362,0.00025946,
 0.00368299,-0.00210657,-0.04113833,-0.04256965,0.00038906,-0.00482303,
 0.00417053,-0.00152520,-0.00106661,0.00746955,0.00000104,0.00017160,-0
 .00056247,0.00010619,0.00013936,-0.00101704,-0.00002639,-0.00002414,0.
 00012993,-0.00001262,-0.00002203,0.00010104,-0.00001003,-0.00001296,0.
 00011417,-0.00000577,-0.00000147,0.00001638,-0.00006461,0.00000076,0.0
 0022154,-0.00044612,-0.00043212,0.00442707,0.00002317,0.00005557,-0.00
 012582,-0.00000141,-0.00000152,0.00000118,-0.00000053,-0.00000419,0.00
 001936,-0.00000169,-0.00000417,0.00002201,0.00000113,0.00000125,-0.000
 01478,0.00000099,-0.00000053,-0.00000029,0.00000010,0.00000052,0.00000
 133,0.00000071,-0.00000061,0.00000195,0.00000386,0.00000230,-0.0000162
 1,-0.00000090,0.00000161,0.00000288,0.00004678,-0.00002182,0.00021008,
 0.00326170,0.04565647,0.03124461,-0.00004477,-0.00002698,-0.00000659,0
 .00001907,0.00001877,0.00000387,-0.00000682,0.00002493,0.00000522,-0.0
 0001794,0.00000098,-0.00000299,0.00003896,0.00003424,0.00000902,-0.000
 02841,-0.00000786,-0.00000318,0.00002357,0.00000655,0.00000298,-0.0000
 1413,-0.00002738,-0.00000476,-0.00003996,0.00001978,-0.00000058,0.0000
 5109,-0.00001238,-0.00000447,-0.00000038,-0.00005081,-0.00000550,-0.00
 008426,-0.00000458,-0.00001688,0.00000613,0.00013735,0.00002507,-0.000
 39278,-0.00026310,0.00000372,-0.00046115,0.00115339,0.00010065,-0.0022
 7207,-0.00399851,-0.00159084,-0.01883534,0.01608615,0.00006914,-0.2692
 2013,0.11924887,-0.00483464,0.00343724,-0.00255399,-0.00033494,0.00141
 850,-0.00058529,-0.00045549,0.00007583,-0.00007928,-0.00002526,0.00002
 070,0.00001869,-0.00000158,0.00004688,0.00001577,0.00003296,-0.0000537
 6,0.00000188,-0.00001318,0.00002860,0.00000873,0.00000045,0.00018702,-
 0.00002470,0.00008431,0.00017857,-0.00054580,-0.00002890,-0.00001746,-
 0.00008264,-0.00002237,0.00000966,0.00000942,0.00000204,-0.00000519,0.
 00000596,0.00000021,-0.00000033,0.00000404,0.00000022,0.00000246,0.000
 00519,0.00000099,-0.00000766,0.00000429,-0.00000022,-0.00000322,-0.000
 00334,-0.00000095,-0.00000551,0.00000493,0.00000157,-0.00001921,0.0000
 0508,-0.00000185,0.00000435,-0.00001408,0.00000001,0.00001140,-0.00006
 103,-0.00002852,0.00117174,-0.00024774,0.00054261,0.28400838,-0.000027
 00,0.00004362,0.00000563,0.00001140,-0.00004714,-0.00000634,0.00013008
 ,-0.00002519,0.00001217,-0.00003343,-0.00003005,-0.00000950,0.00001278
 ,0.00000736,0.00000311,-0.00002197,0.00001542,0.00000096,0.00002039,0.
 00002679,0.00000545,0.00003276,-0.00002627,-0.00000003,-0.00004390,-0.
 00000754,-0.00000457,0.00005743,-0.00000565,-0.00000668,-0.00000705,-0
 .00004337,-0.00000426,-0.00005026,0.00004405,-0.00001107,0.00004264,0.
 00006541,0.00002103,-0.00031524,-0.00002920,0.00008220,-0.00016267,0.0
 0064010,0.00004786,-0.00287363,-0.00122437,-0.00166703,-0.01492694,0.0
 1184204,-0.00037079,0.11955578,-0.12585747,-0.00102411,0.02800781,-0.0
 1072926,0.00066692,-0.00159199,-0.00493835,-0.00159825,0.00140994,0.00
 018351,0.00012554,0.00001734,-0.00008404,-0.00001932,-0.00017629,-0.00
 044134,-0.00003871,-0.00008363,0.00005799,-0.00001232,0.00005756,0.000
 00580,0.00000103,0.00021735,0.00001915,0.00012833,-0.00087882,-0.00028
 826,-0.00007626,-0.00006563,-0.00012720,-0.00003769,-0.00000886,-0.000
 02525,-0.00000464,0.00000211,-0.00000809,-0.00000115,0.00001378,-0.000
 01361,-0.00000110,-0.00000114,-0.00000334,-0.00000053,0.00000429,-0.00
 000044,0.00000018,0.00000432,-0.00000011,0.00000012,-0.00000037,-0.000
 00169,0.00000181,-0.00000491,0.00000573,-0.00000080,0.00000105,0.00000
 057,0.00000254,0.00001419,-0.00001935,-0.00003291,0.00052639,0.0007617
 1,0.00085686,-0.12852112,0.12903219,-0.00000659,0.00000563,-0.00001447
 ,0.00000284,-0.00000565,0.00000523,0.00001994,0.00000235,-0.00002314,-
 0.00000780,-0.00000629,0.00001391,0.00000602,0.00000511,-0.00000504,-0
 .00000516,0.00000228,-0.00000629,0.00000492,0.00000415,0.00000253,0.00
 000366,-0.00000565,-0.00000463,-0.00000949,0.00000137,-0.00000485,0.00
 000530,-0.00001320,0.00007905,0.00000063,-0.00000835,-0.00001876,-0.00
 002328,-0.00000681,0.00008650,0.00001181,0.00002988,-0.00005113,-0.000
 00358,0.00008707,-0.00081498,-0.00008355,0.00017078,0.00020571,-0.0014
 3339,-0.00177209,0.00838629,-0.00427165,0.00252588,0.00448477,-0.00479
 168,-0.00105278,-0.03935404,0.00394269,-0.00218761,0.00325801,-0.00059
 639,-0.00150422,0.00515184,0.00018319,-0.00001355,0.00024264,-0.000001
 76,-0.00001920,0.00006273,0.00000608,-0.00002077,-0.00028473,-0.000025
 15,-0.00000433,0.00008721,0.00000728,-0.00000353,0.00003706,0.00011819
 ,0.00010572,-0.00072683,-0.00007551,-0.00004515,-0.00034328,-0.0000199
 9,-0.00003927,0.00009089,-0.00000052,-0.00000293,0.00000151,-0.0000003
 3,-0.00000079,0.00000139,0.00000158,-0.00000201,0.00000330,0.00000010,
 0.00000006,-0.00000029,-0.00000022,0.00000018,0.00000113,0.00000013,-0
 .00000059,0.00000183,0.00000082,0.00000231,-0.00001449,-0.00000325,0.0
 0000013,0.00000791,0.00000213,0.00000113,-0.00001654,-0.00001799,-0.00
 003994,0.00021798,0.00065096,0.00078455,-0.00483830,0.00609118,0.00238
 902,0.02710273,0.00079449,0.00000725,0.00013412,0.00003163,-0.00019964
 ,-0.00001845,-0.00008966,-0.00008131,-0.00001677,0.00000564,0.00008398
 ,0.00001089,0.00003055,0.00000968,0.00001181,-0.00003110,0.00003595,0.
 00000205,0.00004929,-0.00001241,0.00000308,-0.00001219,-0.00000629,-0.
 00000277,-0.00003841,-0.00003739,-0.00000812,-0.00000636,-0.00015181,-
 0.00001537,-0.00002553,0.00002742,-0.00000395,-0.00005668,0.00000812,-
 0.00000149,0.00006358,0.00002998,0.00000311,-0.00006916,0.00009962,-0.
 00000931,0.00019734,-0.00002991,0.00007587,0.00027758,0.00064605,0.000
 15542,0.00140981,0.00020815,-0.00031406,0.00305915,0.00254783,0.000207
 47,-0.27568335,-0.11183126,-0.03780108,-0.01927449,-0.01386811,-0.0041
 9120,-0.00038311,-0.00191323,0.00010562,-0.00057975,-0.00099799,-0.000
 23781,-0.00000158,0.00033397,0.00005265,0.00019865,-0.00026977,-0.0000
 2677,0.00006802,0.00007565,0.00000985,-0.00059780,-0.00122407,-0.00028
 190,-0.00237911,0.00427174,-0.00032620,-0.00032561,0.00035280,0.000100
 44,-0.00001144,0.00002533,-0.00000030,0.00007403,-0.00003660,-0.000010
 69,-0.00000344,0.00000430,-0.00000680,0.00000088,0.00000098,0.00000010
 ,-0.00000322,0.00000432,0.00000013,0.00000334,-0.00000354,0.00000100,-
 0.00002154,-0.00000684,-0.00000601,-0.00000541,0.00000005,0.00000089,-
 0.00000389,-0.00000901,-0.00000181,-0.00002564,-0.00004143,-0.00001206
 ,0.00001044,0.00015132,0.00001553,0.00080145,-0.00031924,0.00032522,0.
 29069775,-0.00011803,-0.00014678,0.00005669,-0.00003781,0.00005559,0.0
 0001404,-0.00007019,-0.00000356,-0.00000258,0.00003176,-0.00001073,-0.
 00000062,-0.00004908,-0.00001798,0.00000429,0.00004171,-0.00002108,0.0
 0000083,-0.00004187,-0.00003064,-0.00000788,-0.00002892,0.00005467,0.0
 0000382,0.00004910,-0.00000450,0.00000500,0.00000227,0.00009485,0.0000
 2318,0.00000220,0.00001511,-0.00000577,0.00003303,-0.00002078,0.000004
 17,-0.00005706,0.00000753,-0.00001480,0.00010839,-0.00011183,-0.000030
 70,-0.00026562,0.00004453,0.00007378,0.00081346,-0.00028697,0.00009435
 ,0.00165512,-0.00528608,-0.00129690,-0.02923524,-0.01079819,-0.0048936
 8,-0.11162197,-0.11503038,-0.02113008,0.01334178,0.01271260,0.00235134
 ,-0.00156435,-0.00055954,0.00038876,0.00210601,-0.00308061,-0.00030038
 ,0.00011975,0.00006187,0.00002891,-0.00003180,0.00001834,-0.00001174,-
 0.00007153,-0.00002608,-0.00002096,0.00032468,0.00097967,0.00008542,0.
 00293071,-0.00180196,-0.00103028,0.00022262,-0.00012274,0.00012570,-0.
 00001216,0.00003447,-0.00000047,-0.00002744,0.00002271,-0.00001809,-0.
 00000449,0.00001498,-0.00000893,0.00000064,0.00000453,0.00000052,-0.00
 000334,-0.00000011,-0.00000059,-0.00000354,-0.00000117,0.00000127,0.00
 000762,0.00000682,-0.00000289,-0.00000526,-0.00000167,0.00000136,0.000
 00807,0.00000302,0.00000090,0.00005833,0.00003477,0.00000452,-0.001252
 20,-0.00059718,-0.00021047,0.00028341,0.00119064,0.00063526,0.12218343
 ,0.12612960,0.00011658,0.00006839,-0.00061008,0.00000420,-0.00000108,-
 0.00006970,-0.00001522,-0.00000362,-0.00003386,0.00000358,0.00000426,0
 .00001582,0.00000359,0.00000978,-0.00007971,0.00000286,0.00000029,0.00
 000112,-0.00000104,-0.00000513,-0.00000309,-0.00000594,0.00000593,0.00
 000837,0.00000398,-0.00000308,-0.00000752,0.00000619,0.00000879,-0.000
 06744,-0.00000748,-0.00000342,0.00005666,0.00000199,0.00000184,-0.0000
 2807,-0.00000907,-0.00000667,0.00007343,-0.00000809,-0.00003152,0.0001
 7468,0.00004288,0.00009579,-0.00064242,0.00017885,0.00007872,-0.000390
 52,-0.00011154,-0.00143205,0.00487338,-0.00424109,-0.00192509,0.003990
 37,-0.03777179,-0.02114962,-0.04504022,-0.00038274,-0.00019011,0.00475
 409,0.00015445,0.00035617,-0.00431668,0.00019664,-0.00059030,0.0004066
 0,0.00002267,0.00004892,-0.00005583,0.00000654,-0.00003396,0.00007682,
 -0.00001075,-0.00000721,0.00007392,-0.00006513,-0.00005923,0.00057165,
 -0.00051390,-0.00090503,0.00734003,0.00008222,0.00013786,-0.00084530,-
 0.00000554,0.00000303,0.00002961,-0.00000941,-0.00001895,0.00013012,-0
 .00000803,-0.00000811,0.00007389,0.00000006,0.00000055,0.00000133,-0.0
 0000095,0.00000012,0.00000183,0.00000100,0.00000127,-0.00001237,-0.000
 00398,-0.00000424,0.00003158,0.00000015,0.00000185,-0.00001462,0.00000
 058,-0.00000069,0.00000192,0.00000190,-0.00000480,0.00004089,-0.000180
 91,-0.00007938,0.00004290,0.00040957,0.00057897,-0.00303960,0.04206065
 ,0.02578035,0.03101173,0.00247101,-0.00220260,-0.00051237,0.00144511,0
 .00003246,-0.00033536,0.00030946,-0.00065190,-0.00002328,0.00019132,0.
 00001108,0.00008105,-0.00006479,-0.00009226,-0.00003576,0.00006295,-0.
 00002845,-0.00000513,-0.00005578,-0.00000817,-0.00000369,-0.00002491,-
 0.00002615,-0.00001139,-0.00000953,0.00014799,0.00002629,-0.00003815,0
 .00003745,0.00000237,-0.00001293,0.00000536,-0.00000121,0.00004810,0.0
 0001282,0.00000650,-0.00002942,-0.00003535,-0.00000777,0.00002973,-0.0
 0001152,0.00000877,0.00000814,-0.00008340,-0.00001230,-0.00009295,0.00
 008094,0.00000563,0.00002654,0.00019651,0.00003652,0.00079244,-0.00002
 364,0.00012960,-0.00055742,0.00107949,0.00005505,-0.00045661,0.0018139
 2,0.00062043,-0.01928437,0.01379560,-0.00032014,-0.28060280,0.11449222
 ,-0.00658291,-0.00222769,-0.00402891,-0.00147387,-0.00061729,0.0012204
 6,0.00005843,-0.00031268,-0.00037141,0.00000028,0.00019207,0.00027067,
 0.00004826,0.00000836,-0.00033703,-0.00004034,0.00006806,-0.00007340,-
 0.00001101,0.00080309,0.00020829,0.00039921,-0.00001383,-0.00013644,-0
 .00002701,-0.00002528,0.00004185,-0.00000037,-0.00000391,0.00000901,0.
 00000071,-0.00000551,-0.00000037,0.00000082,-0.00002154,0.00000762,-0.
 00000398,0.00000319,0.00000323,0.00000193,-0.00000320,-0.00000426,-0.0
 0000107,0.00000092,-0.00000105,-0.00000018,-0.00000348,-0.00000265,-0.
 00000777,0.00007258,0.00003926,-0.00000021,-0.00001115,-0.00002526,-0.
 00000735,0.00185482,0.00017778,0.00005147,0.29608734,0.02958047,-0.010
 90954,0.00058422,-0.00141451,-0.00527939,-0.00158268,-0.00081932,-0.00
 028093,-0.00005731,0.00024679,0.00004339,0.00012148,-0.00010104,-0.000
 11100,-0.00005015,0.00005858,0.00000741,-0.00000402,-0.00003309,-0.000
 02061,-0.00000198,-0.00000093,0.00001523,-0.00000605,-0.00000609,0.000
 09425,0.00002231,-0.00004904,-0.00000445,-0.00000416,0.00002800,0.0000
 5453,0.00000911,0.00004228,-0.00003086,-0.00000005,-0.00004111,-0.0000
 2076,-0.00000686,0.00004724,-0.00001814,0.00001327,-0.00003118,-0.0000
 1026,-0.00000643,0.00006982,-0.00000419,0.00001041,0.00003468,0.000054
 63,0.00002068,0.00010164,-0.00014717,0.00007715,-0.00202450,-0.0030763
 8,-0.00068559,0.00146504,-0.00057346,0.00066976,-0.01341429,0.01271073
 ,-0.00014798,0.11428293,-0.11596179,-0.00016053,-0.00268788,-0.0017732
 9,-0.00155106,-0.00032829,0.00097598,0.00002392,-0.00024123,-0.0001202
 9,0.00008272,0.00003271,0.00001709,-0.00000588,-0.00012281,0.00006375,
 0.00000652,0.00007378,-0.00002607,-0.00000739,-0.00039436,0.00119095,0
 .00057200,0.00126708,-0.00060178,0.00002419,-0.00005791,0.00003484,-0.
 00000632,-0.00000807,0.00000301,-0.00000061,0.00000493,-0.00000169,0.0
 0000231,-0.00000684,0.00000682,-0.00000424,0.00000323,-0.00000120,0.00
 000190,0.00000340,-0.00000011,0.00000004,-0.00000072,0.00000454,0.0000
 0039,0.00000614,0.00001497,-0.00000794,0.00003011,0.00002244,-0.000012
 75,0.00001223,0.00003452,0.00000182,-0.00006809,-0.00352575,-0.0007196
 2,-0.12553979,0.12715002,0.00393619,-0.00238437,0.00468986,-0.00053788
 ,-0.00144753,0.00483139,-0.00004671,-0.00004167,-0.00042844,0.00011404
 ,0.00009946,-0.00063526,-0.00003699,-0.00004933,0.00016948,0.00000705,
 -0.00001215,0.00007417,-0.00000718,0.00000034,-0.00002914,-0.00000786,
 -0.00000841,0.00005593,0.00000473,0.00003671,-0.00006367,-0.00000973,0
 .00000392,-0.00000782,0.00000195,0.00000700,0.00000926,0.00001062,-0.0
 0000280,-0.00000168,-0.00000858,-0.00000632,-0.00000088,0.00001699,0.0
 0000778,-0.00007874,-0.00000499,-0.00001131,0.00001284,0.00000407,0.00
 001144,-0.00002995,0.00001387,0.00003579,-0.00006364,0.00014713,0.0000
 6545,-0.00060764,-0.00037941,-0.00039567,0.00038004,0.00057160,0.00070
 235,-0.00422926,-0.00412861,0.00239347,0.00476583,-0.00661221,-0.00014
 098,-0.03918936,-0.00128617,-0.00167631,0.00715994,-0.00015834,0.00016
 857,0.00059483,0.00001850,0.00007056,-0.00086067,0.00001496,0.00001634
 ,0.00008464,-0.00001036,-0.00001349,-0.00006765,0.00000959,-0.00002113
 ,0.00007387,0.00031486,0.00062828,-0.00304154,0.00016943,-0.00010690,0
 .00007177,-0.00001433,0.00000299,0.00004047,-0.00000168,0.00000099,0.0
 0000195,0.00000157,0.00000181,-0.00001449,-0.00000601,-0.00000289,0.00
 003158,0.00000193,0.00000190,-0.00001220,0.,-0.00000068,0.00000181,-0.
 00000013,0.00000036,0.00000129,-0.00000654,-0.00000876,0.00007393,-0.0
 0000149,-0.00001190,0.00013185,-0.00000210,-0.00000168,0.00002927,0.00
 001705,-0.00069666,0.00147430,0.00789115,0.00278540,0.02460172\\0.0000
 1826,0.00004198,0.00000758,-0.00003721,0.00002053,-0.00000060,0.000041
 65,-0.00013405,-0.00001487,-0.00000119,0.00010955,0.00001522,-0.000038
 73,-0.00013388,-0.00002236,0.00003676,0.00002038,0.00000629,-0.0000191
 7,0.00004206,0.00000410,0.00006163,-0.00005817,-0.00000239,-0.00003392
 ,-0.00010837,-0.00001834,-0.00003628,0.00010851,0.00001180,0.00006037,
 0.00005792,0.00001375,-0.00001826,-0.00004198,-0.00000758,0.00003721,-
 0.00002053,0.00000060,-0.00004165,0.00013405,0.00001487,0.00000119,-0.
 00010955,-0.00001522,0.00003873,0.00013388,0.00002236,-0.00003676,-0.0
 0002038,-0.00000629,0.00001917,-0.00004206,-0.00000410,-0.00006163,0.0
 0005817,0.00000239,0.00003392,0.00010837,0.00001834,0.00003628,-0.0001
 0851,-0.00001180,-0.00006037,-0.00005792,-0.00001375,0.00001935,0.0001
 0792,0.00001691,0.00000075,-0.00006868,-0.00000954,-0.00002170,0.00010
 801,0.00001309,-0.00000075,0.00006868,0.00000954,0.00002170,-0.0001080
 1,-0.00001309,-0.00001935,-0.00010792,-0.00001691,0.00001174,-0.000029
 05,-0.00000297,0.00000475,-0.00000221,0.00000013,0.00000025,-0.0000225
 8,-0.00000314,-0.00000470,-0.00000219,-0.00000075,-0.00001111,-0.00002
 900,-0.00000510,-0.00002725,-0.00000968,-0.00000390,-0.00002746,0.0000
 0979,-0.00000119,-0.00001174,0.00002905,0.00000297,-0.00000475,0.00000
 221,-0.00000013,-0.00000025,0.00002258,0.00000314,0.00000470,0.0000021
 9,0.00000075,0.00001111,0.00002900,0.00000510,0.00002725,0.00000968,0.
 00000390,0.00002746,-0.00000979,0.00000119\\\@
 The archive entry for this job was punched.


 ABSOLUTISM, OBSOLETISM -- IF IT WORKS, IT'S OUT OF DATE

                          -- STAFFORD BEER
 Job cpu time:       0 days  1 hours  3 minutes 30.5 seconds.
 Elapsed time:       0 days  0 hours  7 minutes 56.4 seconds.
 File lengths (MBytes):  RWF=    372 Int=      0 D2E=      0 Chk=     17 Scr=      1
 Normal termination of Gaussian 16 at Tue Oct  8 23:11:05 2024.
