 Entering Gaussian System, Link 0=g16
 Initial command:
 /opt/g16/l1.exe "/tmp/Gau-1316992.inp" -scrdir="/tmp/"
 Entering Link 1 = /opt/g16/l1.exe PID=   1316994.
  
 Copyright (c) 1988-2019, Gaussian, Inc.  All Rights Reserved.
  
 This is part of the Gaussian(R) 16 program.  It is based on
 the Gaussian(R) 09 system (copyright 2009, Gaussian, Inc.),
 the Gaussian(R) 03 system (copyright 2003, Gaussian, Inc.),
 the Gaussian(R) 98 system (copyright 1998, Gaussian, Inc.),
 the Gaussian(R) 94 system (copyright 1995, Gaussian, Inc.),
 the Gaussian 92(TM) system (copyright 1992, Gaussian, Inc.),
 the Gaussian 90(TM) system (copyright 1990, Gaussian, Inc.),
 the Gaussian 88(TM) system (copyright 1988, Gaussian, Inc.),
 the Gaussian 86(TM) system (copyright 1986, Carnegie Mellon
 University), and the Gaussian 82(TM) system (copyright 1983,
 Carnegie Mellon University). Gaussian is a federally registered
 trademark of Gaussian, Inc.
  
 This software contains proprietary and confidential information,
 including trade secrets, belonging to Gaussian, Inc.
  
 This software is provided under written license and may be
 used, copied, transmitted, or stored only in accord with that
 written license.
  
 The following legend is applicable only to US Government
 contracts under FAR:
  
                    RESTRICTED RIGHTS LEGEND
  
 Use, reproduction and disclosure by the US Government is
 subject to restrictions as set forth in subparagraphs (a)
 and (c) of the Commercial Computer Software - Restricted
 Rights clause in FAR 52.227-19.
  
 Gaussian, Inc.
 340 Quinnipiac St., Bldg. 40, Wallingford CT 06492
  
  
 ---------------------------------------------------------------
 Warning -- This program may not be used in any manner that
 competes with the business of Gaussian, Inc. or will provide
 assistance to any competitor of Gaussian, Inc.  The licensee
 of this program is prohibited from giving any competitor of
 Gaussian, Inc. access to this program.  By using this program,
 the user acknowledges that Gaussian, Inc. is engaged in the
 business of creating and licensing software in the field of
 computational chemistry and represents and warrants to the
 licensee that it is not a competitor of Gaussian, Inc. and that
 it will not use this program in any manner prohibited above.
 ---------------------------------------------------------------
  

 Cite this work as:
 Gaussian 16, Revision C.01,
 M. J. Frisch, G. W. Trucks, H. B. Schlegel, G. E. Scuseria, 
 M. A. Robb, J. R. Cheeseman, G. Scalmani, V. Barone, 
 G. A. Petersson, H. Nakatsuji, X. Li, M. Caricato, A. V. Marenich, 
 J. Bloino, B. G. Janesko, R. Gomperts, B. Mennucci, H. P. Hratchian, 
 J. V. Ortiz, A. F. Izmaylov, J. L. Sonnenberg, D. Williams-Young, 
 F. Ding, F. Lipparini, F. Egidi, J. Goings, B. Peng, A. Petrone, 
 T. Henderson, D. Ranasinghe, V. G. Zakrzewski, J. Gao, N. Rega, 
 G. Zheng, W. Liang, M. Hada, M. Ehara, K. Toyota, R. Fukuda, 
 J. Hasegawa, M. Ishida, T. Nakajima, Y. Honda, O. Kitao, H. Nakai, 
 T. Vreven, K. Throssell, J. A. Montgomery, Jr., J. E. Peralta, 
 F. Ogliaro, M. J. Bearpark, J. J. Heyd, E. N. Brothers, K. N. Kudin, 
 V. N. Staroverov, T. A. Keith, R. Kobayashi, J. Normand, 
 K. Raghavachari, A. P. Rendell, J. C. Burant, S. S. Iyengar, 
 J. Tomasi, M. Cossi, J. M. Millam, M. Klene, C. Adamo, R. Cammi, 
 J. W. Ochterski, R. L. Martin, K. Morokuma, O. Farkas, 
 J. B. Foresman, and D. J. Fox, Gaussian, Inc., Wallingford CT, 2019.
 
 ******************************************
 Gaussian 16:  ES64L-G16RevC.01  3-Jul-2019
                 8-Oct-2024 
 ******************************************
 %nprocshared=8
 Will use up to    8 processors via shared memory.
 %mem=10400MB
 ----------------------------------------------------------------------
 #N opt freq B3LYP/def2SVPP symm=veryloose em=gd3bj scale=0.961 press=0
 .987
 ----------------------------------------------------------------------
 1/18=20,19=15,26=3,38=1,113=-987000,114=961000/1,3;
 2/9=110,12=2,17=2,18=2,40=1/2;
 3/5=43,7=202,11=2,25=1,30=1,71=1,74=-5,124=41/1,2,3;
 4//1;
 5/5=2,38=5/2;
 6/7=2,8=2,9=2,10=2,28=1/1;
 7//1,2,3,16;
 1/18=20,19=15,26=3/3(2);
 2/9=110/2;
 99//99;
 2/9=110/2;
 3/5=43,7=202,11=2,25=1,30=1,71=1,74=-5,124=41/1,2,3;
 4/5=5,16=3,69=1/1;
 5/5=2,38=5/2;
 7//1,2,3,16;
 1/18=20,19=15,26=3/3(-5);
 2/9=110/2;
 6/7=2,8=2,9=2,10=2,19=2,28=1/1;
 99/9=1/99;
 ----------------------------------------
 c1ccc2cc3cc4c5ccccc5c5ccccc5c4cc3cc2c1_2
 ----------------------------------------
 Symbolic Z-matrix:
 Charge =  0 Multiplicity = 1
 C                     6.4599   -1.0043    0.3169 
 C                     6.5276    0.3852    0.2854 
 C                     5.3548    1.1385    0.2136 
 C                     4.0989    0.5102    0.1725 
 C                     2.9077    1.2508    0.1003 
 C                     1.6508    0.6186    0.0592 
 C                     0.4512    1.346    -0.0131 
 C                    -0.8434    0.7499   -0.0568 
 C                    -2.0494    1.5263   -0.1306 
 C                    -2.0448    2.9513   -0.1659 
 C                    -3.2048    3.7212   -0.2374 
 C                    -4.427     3.0905   -0.277 
 C                    -4.4738    1.6979   -0.2444 
 C                    -3.3118    0.8759   -0.1715 
 C                    -3.3816   -0.5568   -0.1389 
 C                    -4.6181   -1.2645   -0.1772 
 C                    -4.7069   -2.6551   -0.1466 
 C                    -3.5517   -3.3992   -0.0759 
 C                    -2.3222   -2.7432   -0.0367 
 C                    -2.1883   -1.3243   -0.0659 
 C                    -0.9124   -0.6663   -0.0246 
 C                     0.3183   -1.3827    0.0488 
 C                     1.583    -0.7728    0.0908 
 C                     2.7726   -1.5216    0.1632 
 C                     4.0303   -0.8977    0.2045 
 C                     5.2193   -1.6425    0.2767 
 H                     7.3719   -1.5928    0.3728 
 H                     7.4926    0.8843    0.3166 
 H                     5.428     2.2234    0.1899 
 H                     2.9587    2.3378    0.0755 
 H                     0.5531    2.427    -0.0354 
 H                    -1.116     3.5128   -0.1379 
 H                    -3.142     4.8054   -0.2616 
 H                    -5.3452    3.6683   -0.3328 
 H                    -5.4685    1.2642   -0.2786 
 H                    -5.566    -0.7382   -0.2331 
 H                    -5.677    -3.1429   -0.1783 
 H                    -3.5946   -4.4843   -0.0508 
 H                    -1.4524   -3.3904    0.0188 
 H                     0.3146   -2.4684    0.0757 
 H                     2.7177   -2.6083    0.1877 
 H                     5.1867   -2.7294    0.3023 
 

 GradGradGradGradGradGradGradGradGradGradGradGradGradGradGradGradGradGrad
 Berny optimization.
 Initialization pass.
                           ----------------------------
                           !    Initial Parameters    !
                           ! (Angstroms and Degrees)  !
 --------------------------                            --------------------------
 ! Name  Definition              Value          Derivative Info.                !
 --------------------------------------------------------------------------------
 ! R1    R(1,2)                  1.3915         estimate D2E/DX2                !
 ! R2    R(1,26)                 1.3957         estimate D2E/DX2                !
 ! R3    R(1,27)                 1.0868         estimate D2E/DX2                !
 ! R4    R(2,3)                  1.3957         estimate D2E/DX2                !
 ! R5    R(2,28)                 1.0869         estimate D2E/DX2                !
 ! R6    R(3,4)                  1.4049         estimate D2E/DX2                !
 ! R7    R(3,29)                 1.0876         estimate D2E/DX2                !
 ! R8    R(4,5)                  1.4045         estimate D2E/DX2                !
 ! R9    R(4,25)                 1.4099         estimate D2E/DX2                !
 ! R10   R(5,6)                  1.4075         estimate D2E/DX2                !
 ! R11   R(5,30)                 1.0885         estimate D2E/DX2                !
 ! R12   R(6,7)                  1.4048         estimate D2E/DX2                !
 ! R13   R(6,23)                 1.3934         estimate D2E/DX2                !
 ! R14   R(7,8)                  1.4259         estimate D2E/DX2                !
 ! R15   R(7,31)                 1.086          estimate D2E/DX2                !
 ! R16   R(8,9)                  1.4362         estimate D2E/DX2                !
 ! R17   R(8,21)                 1.4182         estimate D2E/DX2                !
 ! R18   R(9,10)                 1.4254         estimate D2E/DX2                !
 ! R19   R(9,14)                 1.4207         estimate D2E/DX2                !
 ! R20   R(10,11)                1.3941         estimate D2E/DX2                !
 ! R21   R(10,32)                1.0857         estimate D2E/DX2                !
 ! R22   R(11,12)                1.3759         estimate D2E/DX2                !
 ! R23   R(11,33)                1.0863         estimate D2E/DX2                !
 ! R24   R(12,13)                1.3938         estimate D2E/DX2                !
 ! R25   R(12,34)                1.0863         estimate D2E/DX2                !
 ! R26   R(13,14)                1.4252         estimate D2E/DX2                !
 ! R27   R(13,35)                1.0857         estimate D2E/DX2                !
 ! R28   R(14,15)                1.4348         estimate D2E/DX2                !
 ! R29   R(15,16)                1.4252         estimate D2E/DX2                !
 ! R30   R(15,20)                1.4207         estimate D2E/DX2                !
 ! R31   R(16,17)                1.3938         estimate D2E/DX2                !
 ! R32   R(16,36)                1.0856         estimate D2E/DX2                !
 ! R33   R(17,18)                1.3759         estimate D2E/DX2                !
 ! R34   R(17,37)                1.0863         estimate D2E/DX2                !
 ! R35   R(18,19)                1.3941         estimate D2E/DX2                !
 ! R36   R(18,38)                1.0862         estimate D2E/DX2                !
 ! R37   R(19,20)                1.4255         estimate D2E/DX2                !
 ! R38   R(19,39)                1.0856         estimate D2E/DX2                !
 ! R39   R(20,21)                1.4362         estimate D2E/DX2                !
 ! R40   R(21,22)                1.4259         estimate D2E/DX2                !
 ! R41   R(22,23)                1.4047         estimate D2E/DX2                !
 ! R42   R(22,40)                1.086          estimate D2E/DX2                !
 ! R43   R(23,24)                1.4075         estimate D2E/DX2                !
 ! R44   R(24,25)                1.4046         estimate D2E/DX2                !
 ! R45   R(24,41)                1.0884         estimate D2E/DX2                !
 ! R46   R(25,26)                1.4049         estimate D2E/DX2                !
 ! R47   R(26,42)                1.0877         estimate D2E/DX2                !
 ! A1    A(2,1,26)             119.9466         estimate D2E/DX2                !
 ! A2    A(2,1,27)             120.0689         estimate D2E/DX2                !
 ! A3    A(26,1,27)            119.9845         estimate D2E/DX2                !
 ! A4    A(1,2,3)              119.9485         estimate D2E/DX2                !
 ! A5    A(1,2,28)             120.0722         estimate D2E/DX2                !
 ! A6    A(3,2,28)             119.9793         estimate D2E/DX2                !
 ! A7    A(2,3,4)              120.7499         estimate D2E/DX2                !
 ! A8    A(2,3,29)             118.8771         estimate D2E/DX2                !
 ! A9    A(4,3,29)             120.3731         estimate D2E/DX2                !
 ! A10   A(3,4,5)              121.5915         estimate D2E/DX2                !
 ! A11   A(3,4,25)             119.3016         estimate D2E/DX2                !
 ! A12   A(5,4,25)             119.1069         estimate D2E/DX2                !
 ! A13   A(4,5,6)              121.4677         estimate D2E/DX2                !
 ! A14   A(4,5,30)             119.2103         estimate D2E/DX2                !
 ! A15   A(6,5,30)             119.322          estimate D2E/DX2                !
 ! A16   A(5,6,7)              122.1058         estimate D2E/DX2                !
 ! A17   A(5,6,23)             119.4256         estimate D2E/DX2                !
 ! A18   A(7,6,23)             118.4686         estimate D2E/DX2                !
 ! A19   A(6,7,8)              124.0845         estimate D2E/DX2                !
 ! A20   A(6,7,31)             115.8709         estimate D2E/DX2                !
 ! A21   A(8,7,31)             120.0445         estimate D2E/DX2                !
 ! A22   A(7,8,9)              122.5452         estimate D2E/DX2                !
 ! A23   A(7,8,21)             117.4465         estimate D2E/DX2                !
 ! A24   A(9,8,21)             120.0083         estimate D2E/DX2                !
 ! A25   A(8,9,10)             122.6146         estimate D2E/DX2                !
 ! A26   A(8,9,14)             120.0099         estimate D2E/DX2                !
 ! A27   A(10,9,14)            117.3754         estimate D2E/DX2                !
 ! A28   A(9,10,11)            123.4134         estimate D2E/DX2                !
 ! A29   A(9,10,32)            121.2746         estimate D2E/DX2                !
 ! A30   A(11,10,32)           115.3119         estimate D2E/DX2                !
 ! A31   A(10,11,12)           119.1737         estimate D2E/DX2                !
 ! A32   A(10,11,33)           120.281          estimate D2E/DX2                !
 ! A33   A(12,11,33)           120.5453         estimate D2E/DX2                !
 ! A34   A(11,12,13)           119.1539         estimate D2E/DX2                !
 ! A35   A(11,12,34)           120.5632         estimate D2E/DX2                !
 ! A36   A(13,12,34)           120.2828         estimate D2E/DX2                !
 ! A37   A(12,13,14)           123.3733         estimate D2E/DX2                !
 ! A38   A(12,13,35)           115.4147         estimate D2E/DX2                !
 ! A39   A(14,13,35)           121.212          estimate D2E/DX2                !
 ! A40   A(9,14,13)            117.5102         estimate D2E/DX2                !
 ! A41   A(9,14,15)            119.9816         estimate D2E/DX2                !
 ! A42   A(13,14,15)           122.5082         estimate D2E/DX2                !
 ! A43   A(14,15,16)           122.5093         estimate D2E/DX2                !
 ! A44   A(14,15,20)           119.984          estimate D2E/DX2                !
 ! A45   A(16,15,20)           117.5067         estimate D2E/DX2                !
 ! A46   A(15,16,17)           123.3748         estimate D2E/DX2                !
 ! A47   A(15,16,36)           121.2097         estimate D2E/DX2                !
 ! A48   A(17,16,36)           115.4155         estimate D2E/DX2                !
 ! A49   A(16,17,18)           119.1572         estimate D2E/DX2                !
 ! A50   A(16,17,37)           120.2837         estimate D2E/DX2                !
 ! A51   A(18,17,37)           120.5591         estimate D2E/DX2                !
 ! A52   A(17,18,19)           119.171          estimate D2E/DX2                !
 ! A53   A(17,18,38)           120.5481         estimate D2E/DX2                !
 ! A54   A(19,18,38)           120.2809         estimate D2E/DX2                !
 ! A55   A(18,19,20)           123.4107         estimate D2E/DX2                !
 ! A56   A(18,19,39)           115.3107         estimate D2E/DX2                !
 ! A57   A(20,19,39)           121.2786         estimate D2E/DX2                !
 ! A58   A(15,20,19)           117.3796         estimate D2E/DX2                !
 ! A59   A(15,20,21)           120.0115         estimate D2E/DX2                !
 ! A60   A(19,20,21)           122.6088         estimate D2E/DX2                !
 ! A61   A(8,21,20)            120.0047         estimate D2E/DX2                !
 ! A62   A(8,21,22)            117.443          estimate D2E/DX2                !
 ! A63   A(20,21,22)           122.5523         estimate D2E/DX2                !
 ! A64   A(21,22,23)           124.0882         estimate D2E/DX2                !
 ! A65   A(21,22,40)           120.0391         estimate D2E/DX2                !
 ! A66   A(23,22,40)           115.8727         estimate D2E/DX2                !
 ! A67   A(6,23,22)            118.4692         estimate D2E/DX2                !
 ! A68   A(6,23,24)            119.4246         estimate D2E/DX2                !
 ! A69   A(22,23,24)           122.1062         estimate D2E/DX2                !
 ! A70   A(23,24,25)           121.4672         estimate D2E/DX2                !
 ! A71   A(23,24,41)           119.3218         estimate D2E/DX2                !
 ! A72   A(25,24,41)           119.211          estimate D2E/DX2                !
 ! A73   A(4,25,24)            119.1081         estimate D2E/DX2                !
 ! A74   A(4,25,26)            119.2998         estimate D2E/DX2                !
 ! A75   A(24,25,26)           121.5922         estimate D2E/DX2                !
 ! A76   A(1,26,25)            120.7536         estimate D2E/DX2                !
 ! A77   A(1,26,42)            118.8743         estimate D2E/DX2                !
 ! A78   A(25,26,42)           120.3721         estimate D2E/DX2                !
 ! D1    D(26,1,2,3)            -0.0026         estimate D2E/DX2                !
 ! D2    D(26,1,2,28)         -179.9998         estimate D2E/DX2                !
 ! D3    D(27,1,2,3)           179.9999         estimate D2E/DX2                !
 ! D4    D(27,1,2,28)            0.0027         estimate D2E/DX2                !
 ! D5    D(2,1,26,25)           -0.0031         estimate D2E/DX2                !
 ! D6    D(2,1,26,42)         -179.9976         estimate D2E/DX2                !
 ! D7    D(27,1,26,25)         179.9943         estimate D2E/DX2                !
 ! D8    D(27,1,26,42)          -0.0001         estimate D2E/DX2                !
 ! D9    D(1,2,3,4)              0.0044         estimate D2E/DX2                !
 ! D10   D(1,2,3,29)          -179.9985         estimate D2E/DX2                !
 ! D11   D(28,2,3,4)          -179.9984         estimate D2E/DX2                !
 ! D12   D(28,2,3,29)           -0.0012         estimate D2E/DX2                !
 ! D13   D(2,3,4,5)            179.9945         estimate D2E/DX2                !
 ! D14   D(2,3,4,25)            -0.0005         estimate D2E/DX2                !
 ! D15   D(29,3,4,5)            -0.0026         estimate D2E/DX2                !
 ! D16   D(29,3,4,25)         -179.9976         estimate D2E/DX2                !
 ! D17   D(3,4,5,6)            179.9975         estimate D2E/DX2                !
 ! D18   D(3,4,5,30)             0.0053         estimate D2E/DX2                !
 ! D19   D(25,4,5,6)            -0.0074         estimate D2E/DX2                !
 ! D20   D(25,4,5,30)         -179.9997         estimate D2E/DX2                !
 ! D21   D(3,4,25,24)         -179.9996         estimate D2E/DX2                !
 ! D22   D(3,4,25,26)           -0.0051         estimate D2E/DX2                !
 ! D23   D(5,4,25,24)            0.0053         estimate D2E/DX2                !
 ! D24   D(5,4,25,26)          179.9997         estimate D2E/DX2                !
 ! D25   D(4,5,6,7)           -179.9977         estimate D2E/DX2                !
 ! D26   D(4,5,6,23)             0.0063         estimate D2E/DX2                !
 ! D27   D(30,5,6,7)            -0.0054         estimate D2E/DX2                !
 ! D28   D(30,5,6,23)          179.9985         estimate D2E/DX2                !
 ! D29   D(5,6,7,8)           -179.9999         estimate D2E/DX2                !
 ! D30   D(5,6,7,31)             0.0023         estimate D2E/DX2                !
 ! D31   D(23,6,7,8)            -0.0039         estimate D2E/DX2                !
 ! D32   D(23,6,7,31)          179.9984         estimate D2E/DX2                !
 ! D33   D(5,6,23,22)          179.9996         estimate D2E/DX2                !
 ! D34   D(5,6,23,24)           -0.003          estimate D2E/DX2                !
 ! D35   D(7,6,23,22)            0.0034         estimate D2E/DX2                !
 ! D36   D(7,6,23,24)         -179.9991         estimate D2E/DX2                !
 ! D37   D(6,7,8,9)            179.9997         estimate D2E/DX2                !
 ! D38   D(6,7,8,21)             0.0055         estimate D2E/DX2                !
 ! D39   D(31,7,8,9)            -0.0027         estimate D2E/DX2                !
 ! D40   D(31,7,8,21)         -179.9969         estimate D2E/DX2                !
 ! D41   D(7,8,9,10)             0.0047         estimate D2E/DX2                !
 ! D42   D(7,8,9,14)           179.9998         estimate D2E/DX2                !
 ! D43   D(21,8,9,10)          179.9987         estimate D2E/DX2                !
 ! D44   D(21,8,9,14)           -0.0062         estimate D2E/DX2                !
 ! D45   D(7,8,21,20)          179.9995         estimate D2E/DX2                !
 ! D46   D(7,8,21,22)           -0.0065         estimate D2E/DX2                !
 ! D47   D(9,8,21,20)            0.0052         estimate D2E/DX2                !
 ! D48   D(9,8,21,22)          179.9992         estimate D2E/DX2                !
 ! D49   D(8,9,10,11)         -179.997          estimate D2E/DX2                !
 ! D50   D(8,9,10,32)           -0.0033         estimate D2E/DX2                !
 ! D51   D(14,9,10,11)           0.0078         estimate D2E/DX2                !
 ! D52   D(14,9,10,32)        -179.9985         estimate D2E/DX2                !
 ! D53   D(8,9,14,13)          179.998          estimate D2E/DX2                !
 ! D54   D(8,9,14,15)            0.0073         estimate D2E/DX2                !
 ! D55   D(10,9,14,13)          -0.0067         estimate D2E/DX2                !
 ! D56   D(10,9,14,15)        -179.9974         estimate D2E/DX2                !
 ! D57   D(9,10,11,12)          -0.0093         estimate D2E/DX2                !
 ! D58   D(9,10,11,33)        -179.999          estimate D2E/DX2                !
 ! D59   D(32,10,11,12)        179.9967         estimate D2E/DX2                !
 ! D60   D(32,10,11,33)          0.007          estimate D2E/DX2                !
 ! D61   D(10,11,12,13)          0.0095         estimate D2E/DX2                !
 ! D62   D(10,11,12,34)        179.9992         estimate D2E/DX2                !
 ! D63   D(33,11,12,13)        179.9992         estimate D2E/DX2                !
 ! D64   D(33,11,12,34)         -0.0111         estimate D2E/DX2                !
 ! D65   D(11,12,13,14)         -0.0092         estimate D2E/DX2                !
 ! D66   D(11,12,13,35)        179.9992         estimate D2E/DX2                !
 ! D67   D(34,12,13,14)       -179.999          estimate D2E/DX2                !
 ! D68   D(34,12,13,35)          0.0095         estimate D2E/DX2                !
 ! D69   D(12,13,14,9)           0.0078         estimate D2E/DX2                !
 ! D70   D(12,13,14,15)        179.9982         estimate D2E/DX2                !
 ! D71   D(35,13,14,9)         179.9989         estimate D2E/DX2                !
 ! D72   D(35,13,14,15)         -0.0107         estimate D2E/DX2                !
 ! D73   D(9,14,15,16)        -179.9999         estimate D2E/DX2                !
 ! D74   D(9,14,15,20)          -0.0075         estimate D2E/DX2                !
 ! D75   D(13,14,15,16)          0.0099         estimate D2E/DX2                !
 ! D76   D(13,14,15,20)       -179.9977         estimate D2E/DX2                !
 ! D77   D(14,15,16,17)        179.9956         estimate D2E/DX2                !
 ! D78   D(14,15,16,36)         -0.0085         estimate D2E/DX2                !
 ! D79   D(20,15,16,17)          0.0031         estimate D2E/DX2                !
 ! D80   D(20,15,16,36)        179.999          estimate D2E/DX2                !
 ! D81   D(14,15,20,19)       -179.9926         estimate D2E/DX2                !
 ! D82   D(14,15,20,21)          0.0066         estimate D2E/DX2                !
 ! D83   D(16,15,20,19)          0.0001         estimate D2E/DX2                !
 ! D84   D(16,15,20,21)        179.9993         estimate D2E/DX2                !
 ! D85   D(15,16,17,18)         -0.003          estimate D2E/DX2                !
 ! D86   D(15,16,17,37)        179.9984         estimate D2E/DX2                !
 ! D87   D(36,16,17,18)       -179.9991         estimate D2E/DX2                !
 ! D88   D(36,16,17,37)          0.0022         estimate D2E/DX2                !
 ! D89   D(16,17,18,19)         -0.0004         estimate D2E/DX2                !
 ! D90   D(16,17,18,38)        179.9981         estimate D2E/DX2                !
 ! D91   D(37,17,18,19)        179.9982         estimate D2E/DX2                !
 ! D92   D(37,17,18,38)         -0.0032         estimate D2E/DX2                !
 ! D93   D(17,18,19,20)          0.0037         estimate D2E/DX2                !
 ! D94   D(17,18,19,39)        179.994          estimate D2E/DX2                !
 ! D95   D(38,18,19,20)       -179.9949         estimate D2E/DX2                !
 ! D96   D(38,18,19,39)         -0.0045         estimate D2E/DX2                !
 ! D97   D(18,19,20,15)         -0.0034         estimate D2E/DX2                !
 ! D98   D(18,19,20,21)        179.9974         estimate D2E/DX2                !
 ! D99   D(39,19,20,15)       -179.9932         estimate D2E/DX2                !
 ! D100  D(39,19,20,21)          0.0076         estimate D2E/DX2                !
 ! D101  D(15,20,21,8)          -0.0054         estimate D2E/DX2                !
 ! D102  D(15,20,21,22)       -179.9991         estimate D2E/DX2                !
 ! D103  D(19,20,21,8)         179.9937         estimate D2E/DX2                !
 ! D104  D(19,20,21,22)          0.0001         estimate D2E/DX2                !
 ! D105  D(8,21,22,23)           0.0068         estimate D2E/DX2                !
 ! D106  D(8,21,22,40)        -179.9997         estimate D2E/DX2                !
 ! D107  D(20,21,22,23)       -179.9995         estimate D2E/DX2                !
 ! D108  D(20,21,22,40)         -0.0059         estimate D2E/DX2                !
 ! D109  D(21,22,23,6)          -0.0052         estimate D2E/DX2                !
 ! D110  D(21,22,23,24)        179.9975         estimate D2E/DX2                !
 ! D111  D(40,22,23,6)        -179.999          estimate D2E/DX2                !
 ! D112  D(40,22,23,24)          0.0037         estimate D2E/DX2                !
 ! D113  D(6,23,24,25)           0.001          estimate D2E/DX2                !
 ! D114  D(6,23,24,41)        -179.9945         estimate D2E/DX2                !
 ! D115  D(22,23,24,25)        179.9983         estimate D2E/DX2                !
 ! D116  D(22,23,24,41)          0.0029         estimate D2E/DX2                !
 ! D117  D(23,24,25,4)          -0.0021         estimate D2E/DX2                !
 ! D118  D(23,24,25,26)       -179.9965         estimate D2E/DX2                !
 ! D119  D(41,24,25,4)         179.9933         estimate D2E/DX2                !
 ! D120  D(41,24,25,26)         -0.0011         estimate D2E/DX2                !
 ! D121  D(4,25,26,1)            0.007          estimate D2E/DX2                !
 ! D122  D(4,25,26,42)        -179.9986         estimate D2E/DX2                !
 ! D123  D(24,25,26,1)        -179.9987         estimate D2E/DX2                !
 ! D124  D(24,25,26,42)         -0.0043         estimate D2E/DX2                !
 --------------------------------------------------------------------------------
 Trust Radius=3.00D-01 FncErr=1.00D-07 GrdErr=1.00D-06 EigMax=2.50D+02 EigMin=1.00D-04
 Number of steps in this run=    252 maximum allowed number of steps=    252.
 GradGradGradGradGradGradGradGradGradGradGradGradGradGradGradGradGradGrad

                          Input orientation:                          
 ---------------------------------------------------------------------
 Center     Atomic      Atomic             Coordinates (Angstroms)
 Number     Number       Type             X           Y           Z
 ---------------------------------------------------------------------
      1          6           0        6.459900   -1.004300    0.316900
      2          6           0        6.527600    0.385200    0.285400
      3          6           0        5.354800    1.138500    0.213600
      4          6           0        4.098900    0.510200    0.172500
      5          6           0        2.907700    1.250800    0.100300
      6          6           0        1.650800    0.618600    0.059200
      7          6           0        0.451200    1.346000   -0.013100
      8          6           0       -0.843400    0.749900   -0.056800
      9          6           0       -2.049400    1.526300   -0.130600
     10          6           0       -2.044800    2.951300   -0.165900
     11          6           0       -3.204800    3.721200   -0.237400
     12          6           0       -4.427000    3.090500   -0.277000
     13          6           0       -4.473800    1.697900   -0.244400
     14          6           0       -3.311800    0.875900   -0.171500
     15          6           0       -3.381600   -0.556800   -0.138900
     16          6           0       -4.618100   -1.264500   -0.177200
     17          6           0       -4.706900   -2.655100   -0.146600
     18          6           0       -3.551700   -3.399200   -0.075900
     19          6           0       -2.322200   -2.743200   -0.036700
     20          6           0       -2.188300   -1.324300   -0.065900
     21          6           0       -0.912400   -0.666300   -0.024600
     22          6           0        0.318300   -1.382700    0.048800
     23          6           0        1.583000   -0.772800    0.090800
     24          6           0        2.772600   -1.521600    0.163200
     25          6           0        4.030300   -0.897700    0.204500
     26          6           0        5.219300   -1.642500    0.276700
     27          1           0        7.371900   -1.592800    0.372800
     28          1           0        7.492600    0.884300    0.316600
     29          1           0        5.428000    2.223400    0.189900
     30          1           0        2.958700    2.337800    0.075500
     31          1           0        0.553100    2.427000   -0.035400
     32          1           0       -1.116000    3.512800   -0.137900
     33          1           0       -3.142000    4.805400   -0.261600
     34          1           0       -5.345200    3.668300   -0.332800
     35          1           0       -5.468500    1.264200   -0.278600
     36          1           0       -5.566000   -0.738200   -0.233100
     37          1           0       -5.677000   -3.142900   -0.178300
     38          1           0       -3.594600   -4.484300   -0.050800
     39          1           0       -1.452400   -3.390400    0.018800
     40          1           0        0.314600   -2.468400    0.075700
     41          1           0        2.717700   -2.608300    0.187700
     42          1           0        5.186700   -2.729400    0.302300
 ---------------------------------------------------------------------
                    Distance matrix (angstroms):
                    1          2          3          4          5
     1  C    0.000000
     2  C    1.391505   0.000000
     3  C    2.413195   1.395735   0.000000
     4  C    2.808715   2.434534   1.404897   0.000000
     5  C    4.213136   3.726554   2.452294   1.404514   0.000000
     6  C    5.082092   4.887619   3.743495   2.453117   1.407538
     7  C    6.460440   6.159129   4.913221   3.746829   2.460958
     8  C    7.520310   7.387946   6.216254   4.953419   3.787655
     9  C    8.888891   8.662569   7.422334   6.239064   4.970116
    10  C    9.392007   8.959608   7.627866   6.619557   5.243073
    11  C   10.772373  10.301545   8.952122   7.988903   6.601483
    12  C   11.646660  11.297708   9.986721   8.919135   7.571306
    13  C   11.276646  11.092099   9.855155   8.664619   7.403057
    14  C    9.962922   9.862218   8.679125   7.427688   6.236714
    15  C    9.862207   9.962913   8.906345   7.562628   6.548277
    16  C   11.092066  11.276619  10.265762   8.902693   7.939862
    17  C   11.297672  11.646632  10.759133   9.362855   8.561492
    18  C   10.301552  10.772396  10.000014   8.595161   7.960992
    19  C    8.959581   9.391996   8.606194   7.201312   6.581995
    20  C    8.662580   8.888910   7.939891   6.553710   5.712091
    21  C    7.387941   7.520329   6.526242   5.151323   4.275984
    22  C    6.159084   6.460407   5.634709   4.229812   3.693639
    23  C    4.887624   5.082116   4.230204   2.825335   2.418652
    24  C    3.726581   4.213175   3.707618   2.426390   2.776402
    25  C    2.434534   2.808716   2.429093   1.409933   2.426343
    26  C    1.395709   2.413150   2.785014   2.429047   3.707532
    27  H    1.086831   2.152432   3.399123   3.895543   5.299943
    28  H    2.152505   1.086876   2.155323   3.417296   4.604608
    29  H    3.391017   2.144113   1.087625   2.168378   2.702941
    30  H    4.846267   4.073543   2.683037   2.156290   1.088478
    31  H    6.840192   6.321907   4.977806   4.036092   2.635527
    32  H    8.832061   8.269564   6.901602   6.025540   4.622071
    33  H   11.237605  10.646058   9.266476   8.430173   7.026025
    34  H   12.712816  12.333868  11.008562   9.970955   8.610589
    35  H   12.156786  12.041476  10.835215   9.607661   8.384776
    36  H   12.041411  12.156728  11.089879   9.753630   8.710389
    37  H   12.333822  12.712780  11.839957  10.442051   9.647761
    38  H   10.646059  11.237615  10.572490   9.175229   8.671454
    39  H    8.269633   8.832136   8.178438   6.786401   6.368505
    40  H    6.321905   6.840203   6.199384   4.816882   4.534007
    41  H    4.073521   4.846228   4.581864   3.410716   3.864763
    42  H    2.144113   3.391022   3.872567   3.419819   4.590930
                    6          7          8          9         10
     6  C    0.000000
     7  C    1.404770   0.000000
     8  C    2.500346   1.425915   0.000000
     9  C    3.814633   2.509844   1.436203   0.000000
    10  C    4.376028   2.971591   2.510264   1.425445   0.000000
    11  C    5.769831   4.365572   3.799664   2.482729   1.394080
    12  C    6.569853   5.187462   4.285917   2.849761   2.388848
    13  C    6.226378   4.942971   3.756821   2.433128   2.734450
    14  C    4.974618   3.795557   2.474274   1.420685   2.431585
    15  C    5.171640   4.280985   2.855987   2.472677   3.754268
    16  C    6.549890   5.704335   4.280264   3.793278   4.939126
    17  C    7.154007   6.529366   5.150604   4.954459   6.206357
    18  C    6.574722   6.208387   4.954824   5.149801   6.527457
    19  C    5.205346   4.941038   3.793284   4.279237   5.702716
    20  C    4.304556   3.755030   2.472073   2.854715   4.279176
    21  C    2.868446   2.430821   1.418245   2.472145   3.793326
    22  C    2.404343   2.732636   2.430778   3.755059   4.941042
    23  C    1.393409   2.404388   2.868417   4.304557   5.205358
    24  C    2.418617   3.693658   4.275929   5.712066   6.581982
    25  C    2.825296   4.229834   5.151293   6.553688   7.201308
    26  C    4.230138   5.634704   6.526188   7.939848   8.606163
    27  H    6.141630   7.528715   8.553593   9.936956  10.469636
    28  H    5.853501   7.064218   8.345441   9.574023   9.770737
    29  H    4.106057   5.057626   6.446900   7.516660   7.516593
    30  H    2.160212   2.697976   4.122486   5.077605   5.046748
    31  H    2.117594   1.086021   2.182506   2.755600   2.653489
    32  H    4.008793   2.677072   2.777500   2.194874   1.085696
    33  H    6.372059   4.994025   4.666110   3.458820   2.156547
    34  H    7.641881   6.252483   5.372098   3.935905   3.381506
    35  H    7.156489   5.926215   4.658889   3.432324   3.818472
    36  H    7.349051   6.371733   4.954642   4.183891   5.100566
    37  H    8.240263   7.598181   6.207443   5.912968   7.094526
    38  H    7.318874   7.096641   5.913204   6.206555   7.596267
    39  H    5.069868   5.104723   4.185532   4.955065   6.371986
    40  H    3.363818   3.817878   3.422861   4.646362   5.915935
    41  H    3.401128   4.562218   4.900890   6.318344   7.329092
    42  H    4.875530   6.255663   6.971125   8.405922   9.207831
                   11         12         13         14         15
    11  C    0.000000
    12  C    1.375908   0.000000
    13  C    2.388337   1.393767   0.000000
    14  C    2.848074   2.481785   1.425217   0.000000
    15  C    4.282785   3.796674   2.507529   1.434770   0.000000
    16  C    5.182494   4.360333   2.966674   2.507541   1.425215
    17  C    6.551469   5.753892   4.360334   3.796694   2.481802
    18  C    7.130674   6.551549   5.182576   4.282893   2.848182
    19  C    6.527460   6.206447   4.939220   3.754379   2.431690
    20  C    5.149733   4.954473   3.793292   2.472708   1.420687
    21  C    4.954850   5.150696   4.280342   2.856060   2.474268
    22  C    6.208377   6.529436   5.704409   4.281055   3.795603
    23  C    6.574708   7.154052   6.549927   5.171661   4.974603
    24  C    7.960951   8.561512   7.939876   6.548279   6.236688
    25  C    8.595126   9.362879   8.902717   7.562636   7.427678
    26  C    9.999952  10.759135  10.265769   8.906340   8.679110
    27  H   11.852321  12.711002  12.309762  10.978715  10.815401
    28  H   11.081033  12.136579  12.007139  10.815423  10.978728
    29  H    8.772185   9.904084   9.925241   8.850450   9.243737
    30  H    6.324590   7.432320   7.466851   6.443394   6.973097
    31  H    3.979644   5.029910   5.083797   4.166760   4.939194
    32  H    2.101527   3.340720   3.818380   3.431604   4.657745
    33  H    1.086287   2.142976   3.380909   3.934199   5.368953
    34  H    2.143178   1.086305   2.156300   3.458068   4.663131
    35  H    3.341090   2.102403   1.085676   2.193992   2.773213
    36  H    5.045942   3.994771   2.669759   2.773181   2.193942
    37  H    7.295967   6.358264   4.988527   4.663150   3.458081
    38  H    8.216873   7.623756   6.247405   5.369012   3.934258
    39  H    7.328806   7.137073   5.923591   4.657778   3.431613
    40  H    7.127086   7.314953   6.355257   4.939254   4.166793
    41  H    8.678668   9.150902   8.393315   6.973058   6.443352
    42  H   10.598056  11.253002  10.640730   9.243764   8.850458
                   16         17         18         19         20
    16  C    0.000000
    17  C    1.393768   0.000000
    18  C    2.388392   1.375925   0.000000
    19  C    2.734493   2.388856   1.394110   0.000000
    20  C    2.433083   2.849717   2.482775   1.425503   0.000000
    21  C    3.756773   4.285842   3.799642   2.510218   1.436172
    22  C    4.942984   5.187467   4.365630   2.971618   2.509902
    23  C    6.226334   6.569799   5.769828   4.375994   3.814631
    24  C    7.403001   7.571243   6.601464   5.243020   4.970105
    25  C    8.664587   8.919103   7.988920   6.619540   6.239078
    26  C    9.855118   9.986691   8.952137   7.627843   7.422342
    27  H   12.007097  12.136543  11.081040   9.770705   9.574026
    28  H   12.309762  12.711007  11.852383  10.469665   9.937004
    29  H   10.640692  11.252964  10.598080   9.207826   8.405929
    30  H    8.393350   9.150945   8.678790   7.329192   6.318432
    31  H    6.355202   7.314896   7.127105   5.915938   4.646338
    32  H    5.923584   7.137060   7.328862   6.372024   4.955053
    33  H    6.247374   7.623726   8.216922   7.596316   6.206534
    34  H    4.988527   6.358261   7.296040   7.094613   5.912978
    35  H    2.669791   3.994793   5.046039   5.100684   4.183932
    36  H    1.085648   2.102389   3.341113   3.818486   3.432248
    37  H    2.156306   1.086300   2.143146   3.381493   3.935857
    38  H    3.380923   2.142980   1.086238   2.156532   3.458830
    39  H    3.818314   3.340628   2.101453   1.085587   2.194879
    40  H    5.083784   5.029884   3.979654   2.653462   2.755635
    41  H    7.466787   7.432270   6.324586   5.046696   5.077579
    42  H    9.925218   9.904057   8.772189   7.516561   7.516682
                   21         22         23         24         25
    21  C    0.000000
    22  C    1.425917   0.000000
    23  C    2.500336   1.404709   0.000000
    24  C    3.787616   2.460888   1.407512   0.000000
    25  C    4.953415   3.746787   2.453121   1.404552   0.000000
    26  C    6.216228   4.913170   3.743476   2.452313   1.404870
    27  H    8.345415   7.064162   5.853485   4.604624   3.417277
    28  H    8.553643   7.528717   6.141689   5.300027   3.895589
    29  H    6.971158   6.255630   4.875557   4.590957   3.419802
    30  H    4.901026   4.562296   3.401267   3.864879   3.410781
    31  H    3.422910   3.817857   3.363828   4.533990   4.816856
    32  H    4.185590   5.104703   5.069839   6.368442   6.786321
    33  H    5.913272   7.096662   7.318888   8.671440   9.175210
    34  H    6.207533   7.598253   8.240313   9.647785  10.442081
    35  H    4.954734   6.371838   7.349114   8.710430   9.753686
    36  H    4.658823   5.926199   7.156417   8.384690   9.607596
    37  H    5.372019   6.252480   7.641818   8.610515   9.970914
    38  H    4.666048   4.994059   6.372035   7.025996   8.430183
    39  H    2.777446   2.677151   4.008824   4.622109   6.025615
    40  H    2.182465   1.086039   2.117575   2.635498   4.036101
    41  H    4.122385   2.697871   2.160091   1.088362   2.156236
    42  H    6.446880   5.057587   4.106053   2.702963   2.168398
                   26         27         28         29         30
    26  C    0.000000
    27  H    2.155317   0.000000
    28  H    3.399147   2.480676   0.000000
    29  H    3.872502   4.286675   2.464105   0.000000
    30  H    4.581875   5.917291   4.767289   2.474594   0.000000
    31  H    6.199327   7.925999   7.117618   4.884349   2.409806
    32  H    8.178327   9.918287   9.012412   6.677870   4.246098
    33  H   10.572441  12.324022  11.349188   8.961890   6.589478
    34  H   11.839964  13.780482  13.152243  10.882224   8.419721
    35  H   11.089920  13.170522  12.980320  10.948665   8.502688
    36  H   10.835144  12.980243  13.170486  11.393772   9.067939
    37  H   11.008523  13.152198  13.780480  12.339116  10.231217
    38  H    9.266494  11.349200  12.324076  11.245376   9.460589
    39  H    6.901684   9.012489   9.918406   8.881663   7.230027
    40  H    4.977810   7.117614   7.926053   6.940669   5.485510
    41  H    2.683038   4.767293   5.917309   5.539951   4.953239
    42  H    1.087690   2.464128   4.286748   4.959948   5.540031
                   31         32         33         34         35
    31  H    0.000000
    32  H    1.993831   0.000000
    33  H    4.400195   2.406407   0.000000
    34  H    6.034833   4.236543   2.480354   0.000000
    35  H    6.137664   4.901046   4.237097   2.407870   0.000000
    36  H    6.892094   6.154881   6.050462   4.413155   2.005289
    37  H    8.358131   8.068624   8.343179   6.821027   4.413169
    38  H    8.060380   8.372852   9.303108   8.343201   6.050508
    39  H    6.153626   6.913168   8.372844   8.068628   6.154901
    40  H    4.902465   6.153616   8.060398   8.358187   6.892175
    41  H    5.485391   7.229878   9.460492  10.231177   9.067941
    42  H    6.940659   8.881603  11.245374  12.339159  11.393839
                   36         37         38         39         40
    36  H    0.000000
    37  H    2.407884   0.000000
    38  H    4.237088   2.480323   0.000000
    39  H    4.900951   4.236431   2.406342   0.000000
    40  H    6.137622   6.034794   4.400193   1.993893   0.000000
    41  H    8.502590   8.419664   6.589491   4.246168   2.409773
    42  H   10.948611  10.882184   8.961896   6.677944   4.884345
                   41         42
    41  H    0.000000
    42  H    2.474623   0.000000
 Stoichiometry    C26H16
 Framework group  C2V[SGV(C26H16)]
 Deg. of freedom    41
 Full point group                 C2V     NOp   4
 Largest Abelian subgroup         C2V     NOp   4
 Largest concise Abelian subgroup C2      NOp   2
                         Standard orientation:                         
 ---------------------------------------------------------------------
 Center     Atomic      Atomic             Coordinates (Angstroms)
 Number     Number       Type             X           Y           Z
 ---------------------------------------------------------------------
      1          6           0        0.000000    0.695754    6.527374
      2          6           0       -0.000000   -0.695754    6.527374
      3          6           0        0.000000   -1.392536    5.318013
      4          6           0        0.000000   -0.704974    4.092863
      5          6           0        0.000000   -1.388191    2.865723
      6          6           0        0.000000   -0.696686    1.639760
      7          6           0        0.000000   -1.366316    0.404862
      8          6           0       -0.000000   -0.709084   -0.860555
      9          6           0       -0.000000   -1.427366   -2.104239
     10          6           0       -0.000000   -2.851336   -2.169059
     11          6           0       -0.000000   -3.565313   -3.366429
     12          6           0       -0.000000   -2.876960   -4.557770
     13          6           0       -0.000000   -1.483351   -4.536723
     14          6           0       -0.000000   -0.717415   -3.334815
     15          6           0        0.000000    0.717415   -3.334815
     16          6           0        0.000000    1.483351   -4.536723
     17          6           0        0.000000    2.876960   -4.557770
     18          6           0        0.000000    3.565313   -3.366429
     19          6           0        0.000000    2.851336   -2.169059
     20          6           0        0.000000    1.427366   -2.104239
     21          6           0        0.000000    0.709084   -0.860555
     22          6           0        0.000000    1.366316    0.404862
     23          6           0        0.000000    0.696686    1.639760
     24          6           0        0.000000    1.388191    2.865723
     25          6           0       -0.000000    0.704974    4.092863
     26          6           0        0.000000    1.392536    5.318013
     27          1           0        0.000000    1.240304    7.467941
     28          1           0       -0.000000   -1.240304    7.467941
     29          1           0        0.000000   -2.479971    5.338355
     30          1           0        0.000000   -2.476668    2.863763
     31          1           0       -0.000000   -2.451221    0.454091
     32          1           0       -0.000000   -3.456578   -1.267717
     33          1           0       -0.000000   -4.651554   -3.356454
     34          1           0       -0.000000   -3.410522   -5.504010
     35          1           0       -0.000000   -1.002660   -5.510185
     36          1           0        0.000000    1.002660   -5.510185
     37          1           0        0.000000    3.410522   -5.504010
     38          1           0        0.000000    4.651554   -3.356454
     39          1           0        0.000000    3.456578   -1.267717
     40          1           0        0.000000    2.451221    0.454091
     41          1           0        0.000000    2.476668    2.863763
     42          1           0        0.000000    2.479971    5.338355
 ---------------------------------------------------------------------
 Rotational constants (GHZ):           0.4468841           0.1130024           0.0901950
 Standard basis: def2SVPP (5D, 7F)
 There are   159 symmetry adapted cartesian basis functions of A1  symmetry.
 There are    52 symmetry adapted cartesian basis functions of A2  symmetry.
 There are    52 symmetry adapted cartesian basis functions of B1  symmetry.
 There are   159 symmetry adapted cartesian basis functions of B2  symmetry.
 There are   146 symmetry adapted basis functions of A1  symmetry.
 There are    52 symmetry adapted basis functions of A2  symmetry.
 There are    52 symmetry adapted basis functions of B1  symmetry.
 There are   146 symmetry adapted basis functions of B2  symmetry.
   396 basis functions,   714 primitive gaussians,   422 cartesian basis functions
    86 alpha electrons       86 beta electrons
       nuclear repulsion energy      1975.8295708624 Hartrees.
 NAtoms=   42 NActive=   42 NUniq=   21 SFac= 4.00D+00 NAtFMM=   60 NAOKFM=F Big=F
 Integral buffers will be    131072 words long.
 Raffenetti 2 integral format.
 Two-electron integral symmetry is turned on.
 Nuclear repulsion after empirical dispersion term =     1975.7191546611 Hartrees.
 One-electron integrals computed using PRISM.
   4 Symmetry operations used in ECPInt.
 ECPInt:  NShTT=   17766 NPrTT=   71262 LenC2=   15409 LenP2D=   40846.
 LDataN:  DoStor=T MaxTD1= 4 Len=   56
 NBasis=   396 RedAO= T EigKep=  1.42D-04  NBF=   146    52    52   146
 NBsUse=   396 1.00D-06 EigRej= -1.00D+00 NBFU=   146    52    52   146
 ExpMin= 1.22D-01 ExpMax= 1.24D+03 ExpMxC= 1.86D+02 IAcc=3 IRadAn=         5 AccDes= 0.00D+00
 Harris functional with IExCor=  402 and IRadAn=       5 diagonalized for initial guess.
 HarFok:  IExCor=  402 AccDes= 0.00D+00 IRadAn=         5 IDoV= 1 UseB2=F ITyADJ=14
 ICtDFT=  3500011 ScaDFX=  1.000000  1.000000  1.000000  1.000000
 FoFCou: FMM=F IPFlag=           0 FMFlag=      100000 FMFlg1=           0
         NFxFlg=           0 DoJE=T BraDBF=F KetDBF=T FulRan=T
         wScrn=  0.000000 ICntrl=       500 IOpCl=  0 I1Cent=   200000004 NGrid=           0
         NMat0=    1 NMatS0=      1 NMatT0=    0 NMatD0=    1 NMtDS0=    0 NMtDT0=    0
 Petite list used in FoFCou.
 Initial guess orbital symmetries:
       Occupied  (B2) (A1) (B2) (A1) (A1) (B2) (A1) (B2) (B2) (A1)
                 (B2) (A1) (B2) (A1) (B2) (A1) (B2) (A1) (B2) (A1)
                 (A1) (B2) (B2) (A1) (B2) (A1) (A1) (A1) (A1) (B2)
                 (A1) (A1) (B2) (B2) (A1) (B2) (A1) (B2) (B2) (A1)
                 (A1) (B2) (A1) (A1) (B2) (A1) (B2) (A1) (B2) (A1)
                 (A1) (A1) (B2) (A1) (B2) (A1) (B2) (A1) (B2) (A1)
                 (A1) (B2) (B2) (B2) (A1) (B2) (B1) (B1) (B2) (A1)
                 (A1) (B2) (B1) (A2) (A1) (B2) (A1) (B1) (A2) (B1)
                 (A2) (B1) (A2) (A2) (B1) (A2)
       Virtual   (B1) (B1) (A2) (B1) (A2) (B1) (A2) (B1) (A2) (A1)
                 (B2) (B1) (A2) (A1) (A1) (B2) (A1) (B2) (A1) (A2)
                 (A1) (B2) (B2) (A1) (B2) (A1) (A2) (B2) (A1) (A1)
                 (B2) (B2) (A1) (B2) (A1) (B2) (A1) (B2) (A1) (B2)
                 (A1) (B2) (A1) (A1) (B2) (B2) (A1) (A1) (A1) (A1)
                 (B2) (B2) (A1) (A1) (B2) (B2) (B2) (B2) (A1) (A1)
                 (B2) (A1) (B2) (B2) (A1) (B1) (B2) (A1) (B1) (B2)
                 (A1) (A2) (A1) (B1) (A1) (B2) (B2) (A2) (A1) (B2)
                 (A1) (B1) (A1) (B2) (B1) (A1) (A2) (B1) (B2) (B2)
                 (B1) (A2) (A2) (B1) (B2) (A2) (B1) (B1) (A1) (B2)
                 (A1) (B2) (A2) (A1) (A1) (B2) (B2) (A1) (B2) (A1)
                 (A1) (A2) (B2) (A1) (B1) (A2) (B2) (B2) (B1) (A1)
                 (B2) (B2) (B2) (A2) (B2) (A1) (A1) (A1) (B1) (B2)
                 (A1) (A2) (A1) (B2) (A2) (B2) (A1) (B2) (B2) (A1)
                 (A1) (A1) (B2) (A2) (A1) (B2) (B2) (B2) (A1) (B2)
                 (A1) (B2) (A1) (A1) (B2) (B2) (B2) (A1) (B2) (B1)
                 (B1) (B1) (A1) (B1) (B2) (A2) (B1) (A1) (B2) (A1)
                 (A1) (A1) (A2) (B1) (B2) (B2) (A1) (A2) (B1) (B2)
                 (A1) (A2) (B1) (A2) (A1) (B1) (B2) (B1) (B1) (B2)
                 (A2) (A2) (A2) (B1) (B1) (B2) (B2) (B2) (A1) (B2)
                 (A1) (A1) (A1) (A1) (A1) (A1) (B2) (B2) (A2) (A1)
                 (B2) (B1) (A2) (A1) (A1) (A1) (B2) (A1) (B2) (A1)
                 (A2) (B2) (A2) (B2) (A1) (B1) (A1) (B2) (B2) (B2)
                 (A1) (B1) (A1) (B2) (A2) (B1) (A1) (A1) (B2) (A1)
                 (B2) (A1) (B2) (B1) (B2) (A2) (B1) (A1) (B2) (B2)
                 (A2) (A1) (A2) (B1) (B2) (A2) (B1) (B1) (A2) (B2)
                 (A1) (A2) (B1) (B1) (A2) (A1) (B1) (B2) (A2) (A1)
                 (B2) (A1) (B2) (A1) (B2) (A2) (A1) (B2) (B1) (A1)
                 (B2) (A1) (A2) (A2) (A1) (B2) (B2) (A1) (A2) (A1)
                 (A2) (B2) (A1) (B2) (B2) (A1) (B2) (A1) (B2) (A1)
                 (B2) (B2) (A1) (B2) (B2) (A1) (B2) (B2) (B2) (B2)
 The electronic state of the initial guess is 1-A1.
 Requested convergence on RMS density matrix=1.00D-08 within 128 cycles.
 Requested convergence on MAX density matrix=1.00D-06.
 Requested convergence on             energy=1.00D-06.
 No special actions if energy rises.
 Integral accuracy reduced to 1.0D-05 until final iterations.
 Initial convergence to 1.0D-05 achieved.  Increase integral accuracy.
 SCF Done:  E(RB3LYP) =  -999.806183371     A.U. after   15 cycles
            NFock= 15  Conv=0.50D-08     -V/T= 2.0105

 **********************************************************************

            Population analysis using the SCF Density.

 **********************************************************************

 Orbital symmetries:
       Occupied  (A1) (B2) (B2) (A1) (A1) (B2) (A1) (B2) (A1) (B2)
                 (B2) (A1) (B2) (B2) (A1) (A1) (B2) (A1) (B2) (A1)
                 (A1) (B2) (B2) (A1) (B2) (A1) (A1) (A1) (A1) (B2)
                 (A1) (B2) (A1) (B2) (A1) (B2) (A1) (B2) (B2) (A1)
                 (A1) (B2) (A1) (A1) (B2) (A1) (B2) (A1) (B2) (A1)
                 (A1) (B2) (A1) (A1) (B2) (B2) (A1) (A1) (B2) (A1)
                 (B2) (B2) (B1) (A1) (B2) (B1) (A1) (B2) (B2) (B1)
                 (A1) (A2) (A1) (B2) (A1) (A1) (B2) (B1) (A2) (B1)
                 (A2) (B1) (A2) (A2) (B1) (A2)
       Virtual   (B1) (B1) (A2) (B1) (A2) (B1) (A2) (B1) (A1) (B2)
                 (A1) (A2) (A1) (B2) (A1) (B2) (A1) (B2) (A1) (B2)
                 (B1) (A2) (A1) (B2) (A1) (B2) (A2) (B2) (A1) (B2)
                 (A1) (A2) (B2) (A1) (B2) (A1) (A1) (A1) (B2) (A1)
                 (B2) (B2) (A1) (B2) (A1) (A1) (A1) (B2) (A1) (B2)
                 (B2) (A1) (B2) (A1) (A1) (B2) (A1) (B2) (B2) (A1)
                 (A1) (B2) (A1) (B2) (B1) (A1) (B1) (B2) (A1) (B2)
                 (A2) (B1) (B2) (A1) (A1) (A2) (A1) (B2) (A1) (B1)
                 (B2) (B1) (B2) (A2) (A1) (B2) (B1) (A1) (B2) (A2)
                 (B1) (A2) (B1) (B2) (A2) (B1) (B1) (B2) (A1) (A2)
                 (B2) (A1) (A1) (B2) (B2) (A2) (A1) (B2) (A2) (B1)
                 (A1) (B2) (A1) (B1) (A1) (B2) (A1) (A2) (B2) (B2)
                 (A1) (B2) (A1) (B1) (A1) (B2) (A1) (A2) (B2) (A1)
                 (B2) (A2) (B2) (A1) (B2) (B2) (B2) (A1) (B2) (A1)
                 (A1) (B2) (A1) (A2) (B2) (A1) (B2) (B2) (A1) (B2)
                 (B2) (A1) (A1) (A1) (B2) (B2) (B2) (A1) (B2) (A1)
                 (B1) (B1) (B2) (B1) (B1) (A1) (B2) (A2) (B1) (A1)
                 (A1) (A1) (B2) (A1) (B2) (A2) (B1) (B2) (A1) (A2)
                 (B1) (A1) (A2) (B2) (B1) (B2) (A2) (B1) (B1) (B1)
                 (B2) (A2) (A2) (B1) (A2) (B1) (B2) (B2) (A1) (B2)
                 (A1) (A1) (A1) (A1) (B2) (A1) (A2) (A1) (B2) (A1)
                 (B1) (A2) (B2) (A1) (A1) (A1) (A2) (B2) (A1) (B2)
                 (A1) (A2) (B2) (B2) (B1) (A1) (A1) (B2) (B2) (B2)
                 (A1) (B1) (A1) (B2) (A2) (B1) (A1) (A1) (B2) (A1)
                 (B2) (A1) (B2) (B1) (B2) (A2) (B1) (A1) (A2) (B2)
                 (B2) (A1) (A2) (B1) (B2) (A2) (B1) (B1) (A2) (A2)
                 (B1) (A1) (B2) (B1) (A2) (B1) (A1) (A2) (B2) (A1)
                 (B2) (A1) (B2) (A1) (A2) (B2) (A1) (B1) (B2) (A1)
                 (A2) (B2) (A1) (A2) (B2) (A1) (B2) (A1) (A2) (A2)
                 (A1) (B2) (A1) (B2) (B2) (A1) (B2) (B2) (A1) (A1)
                 (B2) (B2) (A1) (B2) (B2) (A1) (B2) (B2) (B2) (B2)
 The electronic state is 1-A1.
 Alpha  occ. eigenvalues --  -10.20368 -10.20340 -10.20306 -10.20305 -10.20275
 Alpha  occ. eigenvalues --  -10.20263 -10.19644 -10.19616 -10.19491 -10.19454
 Alpha  occ. eigenvalues --  -10.19188 -10.19172 -10.19145 -10.19140 -10.19135
 Alpha  occ. eigenvalues --  -10.19130 -10.19116 -10.19105 -10.19089 -10.19088
 Alpha  occ. eigenvalues --  -10.19047 -10.19018 -10.18859 -10.18858 -10.18812
 Alpha  occ. eigenvalues --  -10.18811  -0.89191  -0.87863  -0.84927  -0.84568
 Alpha  occ. eigenvalues --   -0.81294  -0.78238  -0.78191  -0.76419  -0.76196
 Alpha  occ. eigenvalues --   -0.73437  -0.72279  -0.71911  -0.68644  -0.66459
 Alpha  occ. eigenvalues --   -0.63650  -0.62655  -0.61399  -0.60692  -0.59007
 Alpha  occ. eigenvalues --   -0.58685  -0.57066  -0.54457  -0.52897  -0.52104
 Alpha  occ. eigenvalues --   -0.50475  -0.49519  -0.48651  -0.47815  -0.46890
 Alpha  occ. eigenvalues --   -0.45517  -0.44938  -0.44560  -0.43447  -0.42833
 Alpha  occ. eigenvalues --   -0.42714  -0.42310  -0.42084  -0.41760  -0.41377
 Alpha  occ. eigenvalues --   -0.40376  -0.40302  -0.39404  -0.37318  -0.36847
 Alpha  occ. eigenvalues --   -0.36791  -0.36702  -0.36672  -0.35071  -0.34515
 Alpha  occ. eigenvalues --   -0.33004  -0.32915  -0.32556  -0.30605  -0.29505
 Alpha  occ. eigenvalues --   -0.28201  -0.27325  -0.24726  -0.22989  -0.22773
 Alpha  occ. eigenvalues --   -0.18662
 Alpha virt. eigenvalues --   -0.08856  -0.04419  -0.04335  -0.02583   0.00662
 Alpha virt. eigenvalues --    0.01424   0.03234   0.03249   0.06047   0.06191
 Alpha virt. eigenvalues --    0.06566   0.07663   0.07700   0.07908   0.09910
 Alpha virt. eigenvalues --    0.09922   0.11368   0.12118   0.13137   0.13479
 Alpha virt. eigenvalues --    0.13894   0.14313   0.14461   0.16059   0.19585
 Alpha virt. eigenvalues --    0.19681   0.19698   0.21608   0.22519   0.23081
 Alpha virt. eigenvalues --    0.23544   0.23748   0.25556   0.25948   0.26620
 Alpha virt. eigenvalues --    0.26972   0.27752   0.28339   0.28383   0.28552
 Alpha virt. eigenvalues --    0.29492   0.30225   0.30768   0.31242   0.31805
 Alpha virt. eigenvalues --    0.32218   0.32946   0.33995   0.34739   0.35019
 Alpha virt. eigenvalues --    0.35842   0.36099   0.36681   0.36774   0.38026
 Alpha virt. eigenvalues --    0.38658   0.39371   0.39879   0.41634   0.41996
 Alpha virt. eigenvalues --    0.42385   0.43004   0.43078   0.43411   0.44376
 Alpha virt. eigenvalues --    0.44868   0.45529   0.46258   0.46764   0.46948
 Alpha virt. eigenvalues --    0.46981   0.47499   0.47608   0.47737   0.48645
 Alpha virt. eigenvalues --    0.49016   0.49317   0.49891   0.50126   0.50247
 Alpha virt. eigenvalues --    0.50957   0.51392   0.51554   0.52090   0.52278
 Alpha virt. eigenvalues --    0.52405   0.54185   0.54516   0.55442   0.55505
 Alpha virt. eigenvalues --    0.55559   0.57408   0.57921   0.59318   0.60719
 Alpha virt. eigenvalues --    0.60814   0.61668   0.62754   0.64031   0.64596
 Alpha virt. eigenvalues --    0.65803   0.65804   0.66099   0.67383   0.67536
 Alpha virt. eigenvalues --    0.67613   0.67832   0.68510   0.68534   0.68560
 Alpha virt. eigenvalues --    0.68687   0.69705   0.69800   0.70065   0.70552
 Alpha virt. eigenvalues --    0.71735   0.72093   0.72674   0.72904   0.73363
 Alpha virt. eigenvalues --    0.73835   0.74657   0.75029   0.75299   0.76273
 Alpha virt. eigenvalues --    0.76565   0.77305   0.77803   0.78336   0.79290
 Alpha virt. eigenvalues --    0.79371   0.79532   0.80744   0.81249   0.82078
 Alpha virt. eigenvalues --    0.82511   0.83903   0.84332   0.84484   0.85242
 Alpha virt. eigenvalues --    0.86381   0.87264   0.87820   0.88367   0.90921
 Alpha virt. eigenvalues --    0.93041   0.95091   0.96365   0.96960   1.03228
 Alpha virt. eigenvalues --    1.05119   1.05911   1.07266   1.11081   1.11923
 Alpha virt. eigenvalues --    1.13636   1.15972   1.16315   1.17925   1.20903
 Alpha virt. eigenvalues --    1.20977   1.21142   1.21841   1.22977   1.24166
 Alpha virt. eigenvalues --    1.24230   1.25466   1.25547   1.25953   1.27455
 Alpha virt. eigenvalues --    1.27686   1.29633   1.31523   1.32785   1.32944
 Alpha virt. eigenvalues --    1.33723   1.34340   1.35154   1.36744   1.37576
 Alpha virt. eigenvalues --    1.39063   1.39358   1.41498   1.42558   1.42897
 Alpha virt. eigenvalues --    1.43480   1.43986   1.44474   1.46678   1.47458
 Alpha virt. eigenvalues --    1.48206   1.48639   1.49228   1.49399   1.49555
 Alpha virt. eigenvalues --    1.50181   1.50290   1.52610   1.53190   1.58815
 Alpha virt. eigenvalues --    1.66025   1.67219   1.70367   1.71077   1.71599
 Alpha virt. eigenvalues --    1.73714   1.74119   1.74365   1.75552   1.77235
 Alpha virt. eigenvalues --    1.78260   1.78594   1.79694   1.80982   1.82106
 Alpha virt. eigenvalues --    1.83355   1.83711   1.83839   1.84352   1.85291
 Alpha virt. eigenvalues --    1.85514   1.86875   1.86981   1.88709   1.90882
 Alpha virt. eigenvalues --    1.91585   1.93481   1.93606   1.94242   1.99721
 Alpha virt. eigenvalues --    2.01045   2.01363   2.03167   2.04209   2.04788
 Alpha virt. eigenvalues --    2.04845   2.05998   2.06554   2.08403   2.09351
 Alpha virt. eigenvalues --    2.11648   2.14467   2.14529   2.14629   2.16309
 Alpha virt. eigenvalues --    2.18584   2.18714   2.19891   2.20066   2.20195
 Alpha virt. eigenvalues --    2.21175   2.21639   2.22537   2.23611   2.25675
 Alpha virt. eigenvalues --    2.26784   2.27339   2.29335   2.29433   2.31831
 Alpha virt. eigenvalues --    2.32126   2.32178   2.32314   2.34203   2.35524
 Alpha virt. eigenvalues --    2.37631   2.37652   2.40674   2.41173   2.46536
 Alpha virt. eigenvalues --    2.47919   2.49356   2.51652   2.54563   2.57202
 Alpha virt. eigenvalues --    2.58070   2.60741   2.60779   2.61574   2.61655
 Alpha virt. eigenvalues --    2.61951   2.62108   2.63713   2.64083   2.65701
 Alpha virt. eigenvalues --    2.66561   2.68087   2.68210   2.68260   2.70801
 Alpha virt. eigenvalues --    2.72009   2.72743   2.76106   2.77750   2.82096
 Alpha virt. eigenvalues --    2.82825   2.84561   2.89152   2.89560   2.90732
 Alpha virt. eigenvalues --    2.97278   2.99660   3.05634   3.08177   3.24679
 Alpha virt. eigenvalues --    3.29731   3.38799   3.41969   3.50559   3.56035
          Condensed to atoms (all electrons):
               1          2          3          4          5          6
     1  C    5.242331   0.136110   0.147327  -0.157631  -0.002292   0.000297
     2  C    0.136110   5.242331   0.227120   0.143940   0.019794  -0.001297
     3  C    0.147327   0.227120   5.461778   0.198273  -0.159142   0.018631
     4  C   -0.157631   0.143940   0.198273   5.426128   0.226699   0.146863
     5  C   -0.002292   0.019794  -0.159142   0.226699   5.748087   0.213596
     6  C    0.000297  -0.001297   0.018631   0.146863   0.213596   5.459361
     7  C   -0.000006   0.000017  -0.001032   0.020919  -0.161922   0.199927
     8  C    0.000000  -0.000000   0.000009  -0.001167   0.018295   0.138571
     9  C    0.000000  -0.000000   0.000000  -0.000001  -0.000492   0.031564
    10  C   -0.000000   0.000000  -0.000000   0.000001  -0.000078   0.000493
    11  C   -0.000000   0.000000  -0.000000   0.000000  -0.000001  -0.000184
    12  C    0.000000  -0.000000   0.000000  -0.000000  -0.000000   0.000013
    13  C   -0.000000   0.000000  -0.000000  -0.000000   0.000000  -0.000007
    14  C    0.000000  -0.000000   0.000000  -0.000000   0.000010   0.001181
    15  C   -0.000000   0.000000  -0.000000   0.000000  -0.000004  -0.000552
    16  C    0.000000  -0.000000   0.000000   0.000000  -0.000000   0.000001
    17  C   -0.000000   0.000000  -0.000000  -0.000000   0.000000  -0.000001
    18  C    0.000000  -0.000000   0.000000  -0.000000  -0.000000   0.000009
    19  C    0.000000  -0.000000   0.000000  -0.000000   0.000002   0.000125
    20  C   -0.000000   0.000000  -0.000000  -0.000001   0.000094  -0.005548
    21  C   -0.000000   0.000000  -0.000005   0.000215  -0.001305  -0.166282
    22  C    0.000017  -0.000006   0.000129  -0.001879   0.026542   0.032512
    23  C   -0.001297   0.000297  -0.001276  -0.138360   0.034057  -0.090447
    24  C    0.019794  -0.002292   0.025557   0.028776  -0.146991   0.034057
    25  C    0.143940  -0.157631   0.045915  -0.031789   0.028776  -0.138360
    26  C    0.227120   0.147327  -0.176479   0.045915   0.025557  -0.001276
    27  H    0.436349  -0.084849   0.015110  -0.001422   0.000045  -0.000001
    28  H   -0.084849   0.436349  -0.076719   0.015762  -0.000496   0.000009
    29  H    0.015476  -0.081154   0.437491  -0.078828  -0.022153   0.000770
    30  H   -0.000024   0.000576  -0.018192  -0.084471   0.435351  -0.078296
    31  H   -0.000000   0.000001  -0.000039   0.000519  -0.019997  -0.087157
    32  H    0.000000  -0.000000   0.000000   0.000002  -0.000087   0.002973
    33  H   -0.000000   0.000000  -0.000000  -0.000000  -0.000000  -0.000002
    34  H   -0.000000   0.000000  -0.000000   0.000000   0.000000  -0.000000
    35  H   -0.000000   0.000000  -0.000000  -0.000000   0.000000  -0.000000
    36  H    0.000000  -0.000000   0.000000   0.000000  -0.000000   0.000000
    37  H    0.000000  -0.000000  -0.000000  -0.000000  -0.000000   0.000000
    38  H    0.000000  -0.000000   0.000000   0.000000  -0.000000   0.000000
    39  H   -0.000000   0.000000  -0.000000  -0.000000   0.000000  -0.000073
    40  H    0.000001  -0.000000   0.000001   0.000037  -0.000571   0.021393
    41  H    0.000576  -0.000024  -0.000315   0.017878  -0.002368   0.019567
    42  H   -0.081154   0.015476  -0.002073   0.017622  -0.000326  -0.000019
               7          8          9         10         11         12
     1  C   -0.000006   0.000000   0.000000  -0.000000  -0.000000   0.000000
     2  C    0.000017  -0.000000  -0.000000   0.000000   0.000000  -0.000000
     3  C   -0.001032   0.000009   0.000000  -0.000000  -0.000000   0.000000
     4  C    0.020919  -0.001167  -0.000001   0.000001   0.000000  -0.000000
     5  C   -0.161922   0.018295  -0.000492  -0.000078  -0.000001  -0.000000
     6  C    0.199927   0.138571   0.031564   0.000493  -0.000184   0.000013
     7  C    5.757760   0.274267  -0.152937  -0.026761   0.000211   0.000112
     8  C    0.274267   5.701209   0.204290  -0.154419   0.029269  -0.006334
     9  C   -0.152937   0.204290   5.686505   0.249320   0.142891  -0.185262
    10  C   -0.026761  -0.154419   0.249320   5.452170   0.214743   0.157873
    11  C    0.000211   0.029269   0.142891   0.214743   5.239897   0.149646
    12  C    0.000112  -0.006334  -0.185262   0.157873   0.149646   5.235967
    13  C   -0.000476   0.027597   0.041778  -0.181561   0.158227   0.213755
    14  C    0.021707  -0.031460   0.109749   0.035752  -0.186942   0.145157
    15  C   -0.001822  -0.144982  -0.032926   0.027998  -0.006257   0.029143
    16  C    0.000081  -0.001405   0.018985  -0.000439   0.000055   0.000632
    17  C   -0.000000  -0.000530   0.000884  -0.000003   0.000011  -0.000147
    18  C   -0.000001   0.001048  -0.000502   0.000000  -0.000001   0.000011
    19  C   -0.000535   0.019994  -0.001698   0.000073   0.000000  -0.000003
    20  C    0.026376  -0.036126  -0.141688  -0.001698  -0.000502   0.000884
    21  C    0.030101   0.059075  -0.036126   0.019994   0.001048  -0.000530
    22  C   -0.162074   0.030101   0.026376  -0.000535  -0.000001  -0.000000
    23  C    0.032512  -0.166282  -0.005548   0.000125   0.000009  -0.000001
    24  C    0.026542  -0.001305   0.000094   0.000002  -0.000000   0.000000
    25  C   -0.001879   0.000215  -0.000001  -0.000000  -0.000000  -0.000000
    26  C    0.000129  -0.000005  -0.000000   0.000000   0.000000  -0.000000
    27  H    0.000000   0.000000   0.000000   0.000000   0.000000  -0.000000
    28  H   -0.000000   0.000000  -0.000000  -0.000000   0.000000  -0.000000
    29  H   -0.000045   0.000000   0.000000  -0.000000  -0.000000   0.000000
    30  H   -0.022987   0.000419  -0.000035   0.000004  -0.000000   0.000000
    31  H    0.418231  -0.049665  -0.047097   0.012092   0.001812  -0.000109
    32  H    0.012470  -0.051570  -0.040012   0.419056  -0.087595   0.017567
    33  H    0.000002  -0.000284   0.015729  -0.075851   0.437174  -0.088075
    34  H   -0.000000   0.000043  -0.001426   0.015840  -0.088190   0.437465
    35  H    0.000004  -0.000070   0.021540  -0.002454   0.017694  -0.086691
    36  H    0.000000  -0.000027  -0.001996   0.000064  -0.000123   0.002010
    37  H    0.000000   0.000000   0.000007  -0.000000   0.000000  -0.000001
    38  H   -0.000000   0.000007  -0.000000   0.000000   0.000000  -0.000000
    39  H    0.000053  -0.002438  -0.000006   0.000001   0.000000  -0.000000
    40  H   -0.002773   0.021424  -0.000077   0.000008  -0.000000   0.000000
    41  H   -0.000370  -0.000006  -0.000000   0.000000   0.000000  -0.000000
    42  H    0.000001  -0.000000  -0.000000   0.000000   0.000000  -0.000000
              13         14         15         16         17         18
     1  C   -0.000000   0.000000  -0.000000   0.000000  -0.000000   0.000000
     2  C    0.000000  -0.000000   0.000000  -0.000000   0.000000  -0.000000
     3  C   -0.000000   0.000000  -0.000000   0.000000  -0.000000   0.000000
     4  C   -0.000000  -0.000000   0.000000   0.000000  -0.000000  -0.000000
     5  C    0.000000   0.000010  -0.000004  -0.000000   0.000000  -0.000000
     6  C   -0.000007   0.001181  -0.000552   0.000001  -0.000001   0.000009
     7  C   -0.000476   0.021707  -0.001822   0.000081  -0.000000  -0.000001
     8  C    0.027597  -0.031460  -0.144982  -0.001405  -0.000530   0.001048
     9  C    0.041778   0.109749  -0.032926   0.018985   0.000884  -0.000502
    10  C   -0.181561   0.035752   0.027998  -0.000439  -0.000003   0.000000
    11  C    0.158227  -0.186942  -0.006257   0.000055   0.000011  -0.000001
    12  C    0.213755   0.145157   0.029143   0.000632  -0.000147   0.000011
    13  C    5.453711   0.242893  -0.152879  -0.024794   0.000632   0.000055
    14  C    0.242893   5.707017   0.198724  -0.152879   0.029143  -0.006257
    15  C   -0.152879   0.198724   5.707017   0.242893   0.145157  -0.186942
    16  C   -0.024794  -0.152879   0.242893   5.453711   0.213755   0.158227
    17  C    0.000632   0.029143   0.145157   0.213755   5.235967   0.149646
    18  C    0.000055  -0.006257  -0.186942   0.158227   0.149646   5.239897
    19  C   -0.000439   0.027998   0.035752  -0.181561   0.157873   0.214743
    20  C    0.018985  -0.032926   0.109749   0.041778  -0.185262   0.142891
    21  C   -0.001405  -0.144982  -0.031460   0.027597  -0.006334   0.029269
    22  C    0.000081  -0.001822   0.021707  -0.000476   0.000112   0.000211
    23  C    0.000001  -0.000552   0.001181  -0.000007   0.000013  -0.000184
    24  C   -0.000000  -0.000004   0.000010   0.000000  -0.000000  -0.000001
    25  C    0.000000   0.000000  -0.000000  -0.000000  -0.000000   0.000000
    26  C    0.000000  -0.000000   0.000000  -0.000000   0.000000  -0.000000
    27  H    0.000000  -0.000000   0.000000  -0.000000  -0.000000   0.000000
    28  H   -0.000000   0.000000  -0.000000   0.000000  -0.000000   0.000000
    29  H   -0.000000   0.000000  -0.000000   0.000000  -0.000000   0.000000
    30  H   -0.000000   0.000001  -0.000000  -0.000000  -0.000000   0.000000
    31  H    0.000056  -0.001725  -0.000055  -0.000000   0.000000  -0.000000
    32  H   -0.002458   0.021835  -0.000080   0.000005  -0.000000   0.000000
    33  H    0.015837  -0.001418   0.000042  -0.000000  -0.000000   0.000000
    34  H   -0.076065   0.015768  -0.000291   0.000004  -0.000001   0.000000
    35  H    0.421900  -0.044378  -0.048647   0.011167   0.002010  -0.000123
    36  H    0.011167  -0.048647  -0.044378   0.421900  -0.086691   0.017694
    37  H    0.000004  -0.000291   0.015768  -0.076065   0.437465  -0.088190
    38  H   -0.000000   0.000042  -0.001418   0.015837  -0.088075   0.437174
    39  H    0.000005  -0.000080   0.021835  -0.002458   0.017567  -0.087595
    40  H   -0.000000  -0.000055  -0.001725   0.000056  -0.000109   0.001812
    41  H   -0.000000  -0.000000   0.000001  -0.000000   0.000000  -0.000000
    42  H    0.000000  -0.000000   0.000000  -0.000000   0.000000  -0.000000
              19         20         21         22         23         24
     1  C    0.000000  -0.000000  -0.000000   0.000017  -0.001297   0.019794
     2  C   -0.000000   0.000000   0.000000  -0.000006   0.000297  -0.002292
     3  C    0.000000  -0.000000  -0.000005   0.000129  -0.001276   0.025557
     4  C   -0.000000  -0.000001   0.000215  -0.001879  -0.138360   0.028776
     5  C    0.000002   0.000094  -0.001305   0.026542   0.034057  -0.146991
     6  C    0.000125  -0.005548  -0.166282   0.032512  -0.090447   0.034057
     7  C   -0.000535   0.026376   0.030101  -0.162074   0.032512   0.026542
     8  C    0.019994  -0.036126   0.059075   0.030101  -0.166282  -0.001305
     9  C   -0.001698  -0.141688  -0.036126   0.026376  -0.005548   0.000094
    10  C    0.000073  -0.001698   0.019994  -0.000535   0.000125   0.000002
    11  C    0.000000  -0.000502   0.001048  -0.000001   0.000009  -0.000000
    12  C   -0.000003   0.000884  -0.000530  -0.000000  -0.000001   0.000000
    13  C   -0.000439   0.018985  -0.001405   0.000081   0.000001  -0.000000
    14  C    0.027998  -0.032926  -0.144982  -0.001822  -0.000552  -0.000004
    15  C    0.035752   0.109749  -0.031460   0.021707   0.001181   0.000010
    16  C   -0.181561   0.041778   0.027597  -0.000476  -0.000007   0.000000
    17  C    0.157873  -0.185262  -0.006334   0.000112   0.000013  -0.000000
    18  C    0.214743   0.142891   0.029269   0.000211  -0.000184  -0.000001
    19  C    5.452170   0.249320  -0.154419  -0.026761   0.000493  -0.000078
    20  C    0.249320   5.686505   0.204290  -0.152937   0.031564  -0.000492
    21  C   -0.154419   0.204290   5.701209   0.274267   0.138571   0.018295
    22  C   -0.026761  -0.152937   0.274267   5.757760   0.199927  -0.161922
    23  C    0.000493   0.031564   0.138571   0.199927   5.459361   0.213596
    24  C   -0.000078  -0.000492   0.018295  -0.161922   0.213596   5.748087
    25  C    0.000001  -0.000001  -0.001167   0.020919   0.146863   0.226699
    26  C   -0.000000   0.000000   0.000009  -0.001032   0.018631  -0.159142
    27  H   -0.000000  -0.000000   0.000000  -0.000000   0.000009  -0.000496
    28  H    0.000000   0.000000   0.000000   0.000000  -0.000001   0.000045
    29  H    0.000000  -0.000000  -0.000000   0.000001  -0.000019  -0.000326
    30  H    0.000000  -0.000000  -0.000006  -0.000370   0.019567  -0.002368
    31  H    0.000008  -0.000077   0.021424  -0.002773   0.021393  -0.000571
    32  H    0.000001  -0.000006  -0.002438   0.000053  -0.000073   0.000000
    33  H    0.000000  -0.000000   0.000007  -0.000000   0.000000  -0.000000
    34  H   -0.000000   0.000007   0.000000   0.000000   0.000000  -0.000000
    35  H    0.000064  -0.001996  -0.000027   0.000000   0.000000  -0.000000
    36  H   -0.002454   0.021540  -0.000070   0.000004  -0.000000   0.000000
    37  H    0.015840  -0.001426   0.000043  -0.000000  -0.000000   0.000000
    38  H   -0.075851   0.015729  -0.000284   0.000002  -0.000002  -0.000000
    39  H    0.419056  -0.040012  -0.051570   0.012470   0.002973  -0.000087
    40  H    0.012092  -0.047097  -0.049665   0.418231  -0.087157  -0.019997
    41  H    0.000004  -0.000035   0.000419  -0.022987  -0.078296   0.435351
    42  H   -0.000000   0.000000   0.000000  -0.000045   0.000770  -0.022153
              25         26         27         28         29         30
     1  C    0.143940   0.227120   0.436349  -0.084849   0.015476  -0.000024
     2  C   -0.157631   0.147327  -0.084849   0.436349  -0.081154   0.000576
     3  C    0.045915  -0.176479   0.015110  -0.076719   0.437491  -0.018192
     4  C   -0.031789   0.045915  -0.001422   0.015762  -0.078828  -0.084471
     5  C    0.028776   0.025557   0.000045  -0.000496  -0.022153   0.435351
     6  C   -0.138360  -0.001276  -0.000001   0.000009   0.000770  -0.078296
     7  C   -0.001879   0.000129   0.000000  -0.000000  -0.000045  -0.022987
     8  C    0.000215  -0.000005   0.000000   0.000000   0.000000   0.000419
     9  C   -0.000001  -0.000000   0.000000  -0.000000   0.000000  -0.000035
    10  C   -0.000000   0.000000   0.000000  -0.000000  -0.000000   0.000004
    11  C   -0.000000   0.000000   0.000000   0.000000  -0.000000  -0.000000
    12  C   -0.000000  -0.000000  -0.000000  -0.000000   0.000000   0.000000
    13  C    0.000000   0.000000   0.000000  -0.000000  -0.000000  -0.000000
    14  C    0.000000  -0.000000  -0.000000   0.000000   0.000000   0.000001
    15  C   -0.000000   0.000000   0.000000  -0.000000  -0.000000  -0.000000
    16  C   -0.000000  -0.000000  -0.000000   0.000000   0.000000  -0.000000
    17  C   -0.000000   0.000000  -0.000000  -0.000000  -0.000000  -0.000000
    18  C    0.000000  -0.000000   0.000000   0.000000   0.000000   0.000000
    19  C    0.000001  -0.000000  -0.000000   0.000000   0.000000   0.000000
    20  C   -0.000001   0.000000  -0.000000   0.000000  -0.000000  -0.000000
    21  C   -0.001167   0.000009   0.000000   0.000000  -0.000000  -0.000006
    22  C    0.020919  -0.001032  -0.000000   0.000000   0.000001  -0.000370
    23  C    0.146863   0.018631   0.000009  -0.000001  -0.000019   0.019567
    24  C    0.226699  -0.159142  -0.000496   0.000045  -0.000326  -0.002368
    25  C    5.426128   0.198273   0.015762  -0.001422   0.017622   0.017878
    26  C    0.198273   5.461778  -0.076719   0.015110  -0.002073  -0.000315
    27  H    0.015762  -0.076719   0.668794  -0.012406  -0.000315  -0.000001
    28  H   -0.001422   0.015110  -0.012406   0.668794  -0.012433  -0.000014
    29  H    0.017622  -0.002073  -0.000315  -0.012433   0.677236   0.007504
    30  H    0.017878  -0.000315  -0.000001  -0.000014   0.007504   0.685613
    31  H    0.000037   0.000001   0.000000  -0.000000  -0.000003   0.010120
    32  H   -0.000000  -0.000000  -0.000000   0.000000   0.000000  -0.000030
    33  H    0.000000   0.000000   0.000000  -0.000000  -0.000000   0.000000
    34  H   -0.000000  -0.000000  -0.000000  -0.000000   0.000000   0.000000
    35  H    0.000000   0.000000  -0.000000   0.000000   0.000000  -0.000000
    36  H   -0.000000  -0.000000   0.000000  -0.000000   0.000000   0.000000
    37  H    0.000000  -0.000000  -0.000000  -0.000000   0.000000   0.000000
    38  H   -0.000000  -0.000000  -0.000000   0.000000   0.000000   0.000000
    39  H    0.000002   0.000000   0.000000  -0.000000  -0.000000  -0.000000
    40  H    0.000519  -0.000039  -0.000000   0.000000   0.000000   0.000014
    41  H   -0.084471  -0.018192  -0.000014  -0.000001   0.000012   0.000036
    42  H   -0.078828   0.437491  -0.012433  -0.000315   0.000036   0.000012
              31         32         33         34         35         36
     1  C   -0.000000   0.000000  -0.000000  -0.000000  -0.000000   0.000000
     2  C    0.000001  -0.000000   0.000000   0.000000   0.000000  -0.000000
     3  C   -0.000039   0.000000  -0.000000  -0.000000  -0.000000   0.000000
     4  C    0.000519   0.000002  -0.000000   0.000000  -0.000000   0.000000
     5  C   -0.019997  -0.000087  -0.000000   0.000000   0.000000  -0.000000
     6  C   -0.087157   0.002973  -0.000002  -0.000000  -0.000000   0.000000
     7  C    0.418231   0.012470   0.000002  -0.000000   0.000004   0.000000
     8  C   -0.049665  -0.051570  -0.000284   0.000043  -0.000070  -0.000027
     9  C   -0.047097  -0.040012   0.015729  -0.001426   0.021540  -0.001996
    10  C    0.012092   0.419056  -0.075851   0.015840  -0.002454   0.000064
    11  C    0.001812  -0.087595   0.437174  -0.088190   0.017694  -0.000123
    12  C   -0.000109   0.017567  -0.088075   0.437465  -0.086691   0.002010
[...]
 0005003,-0.00001978,-0.00094057,-0.00002457,-0.00003829,-0.00063287,-0
 .00055751,0.00024882,0.00623752,0.00022247,0.00162662,0.00353717,-0.00
 070777,0.00694391,-0.03770032,-0.00009094,-0.00096752,0.00366748,-0.00
 049206,0.00009799,0.00768355,0.00001150,-0.00003464,0.00020706,-0.0000
 0588,0.00000199,0.00012116,0.00000054,0.00000133,-0.00001378,-0.000000
 83,-0.00000041,-0.00000551,0.00000035,0.00000069,-0.00000029,-0.000000
 25,0.00000005,-0.00000232,0.,0.,0.00000141,0.00000006,0.00000006,0.000
 00072,-0.00000005,0.00000012,0.00000104,-0.00000008,0.00000019,0.00000
 302,-0.00000031,-0.00000122,-0.00002245,0.00000017,0.00000051,0.000000
 54,-0.00000046,0.00000085,0.00001971,-0.00000029,0.00000018,0.00000168
 ,0.00000090,0.00000041,0.00009389,0.00000292,0.00007552,0.00012153,0.0
 0021110,-0.00014852,-0.00357710,0.00111787,-0.00765825,0.02601764,0.00
 000068,-0.00000793,0.00000011,0.00000869,0.00000825,0.00000028,0.00000
 127,-0.00001392,0.00000056,0.00000178,0.00002272,-0.00000098,0.0000256
 3,-0.00004652,0.00000063,-0.00009633,-0.00002255,-0.00000370,-0.000058
 40,0.00006349,-0.00000664,0.00018996,0.00001098,0.00000903,0.00002163,
 -0.00001070,0.00001110,-0.00002721,-0.00002458,-0.00000358,0.00000107,
 0.00002794,0.00000009,0.00002434,-0.00000277,0.00000184,0.00000004,-0.
 00003077,0.00000563,0.00022221,-0.00016539,-0.00000654,0.00107514,-0.0
 0088500,-0.00019800,0.00039276,-0.00089698,0.00006118,-0.00343239,-0.0
 0397305,-0.00039094,-0.01989360,0.01819711,-0.00158611,-0.24804576,0.1
 3166448,-0.01274438,0.00526949,-0.00029308,0.00008434,-0.00186514,0.00
 083786,0.00004499,-0.00273380,-0.00345996,-0.00004399,0.00005936,-0.00
 022236,0.00002282,0.00006151,-0.00000536,0.00000295,-0.00003100,-0.000
 01758,0.00000022,0.00001261,0.00001548,0.00000079,0.00000520,-0.000001
 22,0.00000016,0.00000324,0.00000084,0.00000011,0.00000046,0.00000356,-
 0.00000016,-0.00000987,-0.00000147,-0.00000037,0.00001790,0.00002521,-
 0.00000084,0.00000940,0.00000366,0.00000087,0.00000042,0.00000639,-0.0
 0000016,-0.00000375,0.00000116,-0.00000050,0.00000383,-0.00001505,-0.0
 0000018,-0.00005685,0.00007173,0.00004001,-0.00092252,0.00079992,-0.00
 006590,0.00118498,-0.00014320,0.00026735,0.27155795,0.00001387,-0.0000
 3203,0.00000149,-0.00001073,0.00000618,-0.00000069,0.00001387,-0.00001
 183,0.00000083,-0.00004841,0.00002942,-0.00000265,0.00000038,0.0000811
 1,-0.00000107,0.00015622,0.00008819,0.00000482,0.00000394,0.00019327,-
 0.00000330,-0.00003125,-0.00021039,0.00000343,0.00021455,0.00012807,0.
 00000108,-0.00009032,0.00007417,-0.00000430,-0.00000998,-0.00005295,0.
 00000046,0.00010112,0.00000044,0.00000419,-0.00023742,-0.00047430,-0.0
 0000160,0.00158151,-0.00007777,0.00008480,-0.00237190,-0.00514026,0.00
 016875,-0.00084234,-0.00045481,-0.00003837,-0.00263287,-0.00054549,0.0
 0007901,-0.01411093,0.01116899,-0.00078667,0.13182367,-0.14857675,0.00
 869584,0.02696856,-0.01165030,0.00159739,0.00116419,0.00099123,-0.0000
 5477,0.00018350,-0.00180144,0.00005676,-0.00049639,0.00086882,-0.00005
 210,-0.00001198,-0.00005039,0.00000069,-0.00001844,-0.00003636,-0.0000
 0058,0.00002357,0.00002373,0.00000014,0.00000821,-0.00000100,0.0000004
 5,0.00000734,0.00000253,0.00000028,-0.00000022,0.00000546,-0.00000010,
 0.00002914,0.00002103,0.00000077,0.00001453,0.00001298,0.00000090,-0.0
 0000982,-0.00005413,0.00000061,-0.00000866,-0.00000505,-0.00000025,0.0
 0000163,-0.00005646,0.00000165,0.00000668,0.00002938,-0.00000003,0.000
 09564,0.00001785,-0.00002056,-0.00064891,0.00033895,-0.00003539,0.0003
 2495,0.00094395,-0.00012463,-0.13871828,0.15341342,-0.00000044,0.00000
 051,0.00000264,0.00000075,0.00000017,-0.00000191,-0.00000013,-0.000000
 42,-0.00000348,0.00000079,0.00000057,0.00001094,-0.00000054,-0.0000031
 9,0.00003737,-0.00000815,-0.00000326,-0.00000223,-0.00000516,-0.000000
 61,0.00005334,0.00001008,0.00000534,-0.00001563,0.00000549,-0.00000910
 ,-0.00021761,-0.00000194,-0.00000133,0.00006549,0.00000103,0.00000218,
 -0.00001628,-0.00000075,-0.00000051,-0.00001488,0.00001077,0.00000774,
 -0.00010728,-0.00005003,0.00000586,0.00045563,-0.00016098,0.00023594,0
 .00593118,0.00005982,-0.00004084,-0.00046340,-0.00042431,0.00001845,0.
 00738820,-0.00078186,0.00067326,0.00513035,-0.01274834,0.00868864,-0.0
 3933823,-0.00059429,0.00036550,0.00352853,0.00003687,-0.00006952,-0.00
 331900,-0.00013468,-0.00010788,0.00014223,0.00002964,-0.00003972,-0.00
 032076,0.00000311,0.00000099,-0.00000062,0.00000024,-0.00000054,-0.000
 02615,0.00000059,-0.00000022,-0.00001331,-0.00000008,0.00000003,0.0000
 0238,-0.00000006,-0.00000001,0.00000042,-0.00000006,0.00000007,0.00000
 193,-0.00000113,-0.00000061,-0.00000092,-0.00000057,0.00000138,0.00002
 253,0.00000121,0.00000122,-0.00001190,0.00000021,0.00000043,0.00000054
 ,-0.00000052,0.00000163,0.00000670,-0.00000072,-0.00000101,0.00001603,
 0.00003942,-0.00002164,-0.00097953,-0.00002984,0.00003008,0.00009319,0
 .00025570,-0.00014579,-0.00463748,0.01463757,-0.00948869,0.02494543,0.
 00004808,-0.00001988,0.00000309,-0.00005197,-0.00004960,-0.00000044,-0
 .00003320,0.00007982,-0.00000561,0.00017323,-0.00009201,0.00001908,0.0
 0036036,-0.00133707,0.00004475,-0.00467309,-0.00086357,-0.00040981,-0.
 00076277,0.00007887,-0.00001907,-0.00446575,0.00125126,-0.00055522,0.0
 0069851,0.00122515,-0.00001509,-0.00041268,0.00007178,-0.00001966,0.00
 004112,0.00007196,0.00000009,-0.00002300,0.00002353,-0.00000190,-0.000
 01098,-0.00011614,-0.00000072,0.00017796,0.00011455,0.00002066,-0.0000
 1817,0.00002673,-0.00000039,0.00015270,-0.00012512,0.00000048,0.000035
 42,0.00000809,0.00000246,0.00018144,-0.00049604,0.00004322,-0.00376984
 ,0.00077370,-0.00019607,0.00098768,-0.00077269,0.00026397,0.00662701,0
 .02641448,-0.00058092,-0.05685341,-0.00548332,-0.00070605,0.00140233,-
 0.02877661,0.00055556,0.00112475,-0.00186807,0.00023928,0.00016880,0.0
 0043574,0.00000553,-0.00003153,0.00000258,-0.00001082,0.00000810,0.000
 00408,0.00000110,0.00000237,0.00000818,-0.00000015,0.00001618,0.000022
 78,-0.00000046,-0.00034590,-0.00019024,-0.00002146,0.00004877,0.000007
 36,0.00004935,0.00001401,-0.00001465,-0.00000002,-0.00003730,0.0000253
 8,-0.00000130,-0.00000522,-0.00000569,0.00000011,-0.00003519,0.0000214
 1,-0.00000170,0.00002801,-0.00000340,0.00000076,0.00006617,-0.00004088
 ,-0.00000123,0.00000832,-0.00000416,-0.00000019,-0.00296681,-0.0024094
 0,-0.00014755,0.06259637,-0.00003560,-0.00008613,0.00000030,-0.0000958
 7,0.00002589,-0.00000535,0.00004510,0.00010992,0.00000047,0.00000943,0
 .00018573,-0.00000914,0.00056933,-0.00067881,0.00004528,-0.00263790,0.
 00097277,-0.00002215,-0.00004002,0.00072589,-0.00002944,0.00306595,0.0
 0079605,0.00029626,-0.00050469,-0.00063122,0.00000181,0.00028955,-0.00
 002354,0.00001324,-0.00002987,-0.00003562,-0.00000048,0.00004585,-0.00
 001590,0.00000262,-0.00001973,0.00005338,-0.00000051,-0.00011702,-0.00
 004103,-0.00001279,0.00022027,0.00003007,0.00000860,-0.00006363,-0.000
 01970,0.00000287,-0.00013797,-0.00005297,-0.00000550,-0.00037320,0.000
 64184,-0.00004533,-0.00289449,-0.00089412,-0.00010498,-0.00116844,-0.0
 0181168,-0.00011794,-0.00087143,-0.01339972,0.00041694,-0.00516976,-0.
 33725474,0.00721061,0.00074997,-0.01240476,0.00046616,0.00218269,0.000
 93118,-0.00000275,-0.00035241,0.00019819,-0.00002568,0.00006807,-0.000
 08134,0.00001024,-0.00001299,0.00000311,-0.00000113,-0.00000828,0.0000
 0378,-0.00000044,0.00002097,-0.00000493,0.00000141,-0.00018842,-0.0001
 0711,-0.00000003,-0.00002483,-0.00015378,-0.00002337,-0.00002533,0.000
 01679,-0.00000100,0.00002555,-0.00002066,0.00000111,0.00000820,0.00000
 069,0.00000024,0.00003534,-0.00001065,0.00000163,0.00001371,0.00000517
 ,0.00000082,-0.00005976,0.00003877,-0.00000078,0.00004206,-0.00000934,
 0.00000250,-0.00280816,0.00077605,-0.00010574,0.01108704,0.36166980,0.
 00000348,0.00000101,-0.00000925,0.00000071,-0.00000326,-0.00001475,-0.
 00000475,0.00000204,0.00004678,0.00001656,-0.00001372,-0.00019730,-0.0
 0000271,-0.00004087,0.00010752,-0.00036564,0.00005803,0.00485368,-0.00
 001611,-0.00002407,-0.00038427,-0.00060039,0.00021426,0.00709944,0.000
 02797,0.00007998,0.00035684,-0.00002508,0.00000340,-0.00001832,0.00000
 263,0.00000412,-0.00000054,-0.00000246,0.00000161,0.00000594,-0.000003
 12,-0.00000486,0.00006885,0.00002642,-0.00000232,-0.00034104,-0.000005
 20,-0.00000015,-0.00002457,-0.00000105,0.00000009,0.00021088,0.0000061
 0,0.00000110,-0.00002329,0.00004016,-0.00005088,-0.00049865,-0.0001047
 5,0.00006078,0.00013659,0.00027382,-0.00010005,-0.00441343,0.00009831,
 0.00164993,0.00489479,-0.00071386,0.00719644,-0.03841925,-0.00017945,-
 0.00086808,0.00497389,0.00013844,-0.00018579,-0.00313042,0.00002515,0.
 00000994,-0.00019279,-0.00001245,0.00000728,0.00020584,0.00000153,-0.0
 0000035,-0.00001844,0.00000026,0.00000030,0.00000112,-0.00000042,0.000
 00150,0.00001379,-0.00002150,-0.00000011,0.00023274,0.00005015,-0.0000
 2191,-0.00104462,0.00000024,-0.00000052,0.00002261,-0.00000131,0.00000
 110,-0.00002255,-0.00000023,-0.00000039,-0.00000461,-0.00000204,0.0000
 0100,-0.00000955,0.00000033,0.00000004,0.00001307,-0.00000076,0.000000
 07,0.00011577,-0.00000134,0.00000041,0.00001472,-0.00013762,-0.0000877
 2,0.00162168,0.00149969,-0.00792208,0.02356567,0.00018449,0.00042463,0
 .00000059,0.00012981,-0.00017355,0.00002053,0.00035967,-0.00132530,0.0
 0004395,-0.00457739,-0.00075859,-0.00046233,-0.00076975,0.00006853,-0.
 00001296,-0.00424940,0.00121926,-0.00048034,0.00042935,0.00125115,-0.0
 0001881,0.00021028,0.00015275,0.00001463,-0.00000773,-0.00008272,-0.00
 000082,0.00000779,0.00003497,0.00000009,-0.00001909,-0.00003154,-0.000
 00004,-0.00001195,0.00001930,-0.00000071,0.00000272,-0.00002342,0.0000
 0069,-0.00002185,0.00005942,-0.00000265,0.00001410,0.00002053,-0.00000
 028,0.00001344,-0.00001111,0.00000216,0.00001025,0.00000047,0.00000029
 ,0.00001093,-0.00004413,0.00000196,-0.00004998,0.00006956,-0.00000301,
 -0.00000705,-0.00001626,-0.00001074,0.00013804,-0.00045454,0.00002478,
 0.00132092,0.00167498,0.00018784,0.00486310,0.02628116,-0.00062950,-0.
 05859900,-0.01340766,-0.00066428,0.00233946,-0.02791319,0.00059598,0.0
 0124521,-0.00173250,0.00028669,0.00000881,0.00001043,-0.00001234,-0.00
 001933,0.00006320,-0.00000464,-0.00036142,-0.00018689,-0.00002280,0.00
 004782,-0.00000809,0.00005295,-0.00030712,0.00020682,-0.00002959,-0.00
 001225,-0.00002591,0.00000013,0.00000112,-0.00000059,-0.00000007,-0.00
 000142,-0.00000212,-0.00000006,-0.00000476,0.00000342,-0.00000037,0.00
 000708,0.00000025,0.00000029,0.00000611,-0.00000269,0.00000030,-0.0000
 0287,0.00000006,-0.00000038,-0.00000737,-0.00002563,-0.00000098,-0.000
 44154,-0.00082816,-0.00000855,0.05852347,-0.00031668,0.00003784,-0.000
 01681,-0.00003812,0.00023582,-0.00001329,0.00058611,-0.00068265,0.0000
 4640,-0.00261210,0.00116848,0.00000402,0.00007673,0.00063325,-0.000025
 26,0.00310962,0.00078540,0.00026308,-0.00068450,-0.00075148,-0.0000083
 3,0.00000048,0.00023651,-0.00001079,-0.00003061,0.00009228,-0.00000229
 ,0.00000431,-0.00003069,0.00000063,0.00000834,0.00003845,-0.00000060,0
 .00003346,-0.00001345,0.00000168,-0.00000098,-0.00000411,0.00000007,0.
 00003064,-0.00003496,0.00000235,0.00001945,-0.00005040,0.00000236,-0.0
 0000204,0.00002077,-0.00000131,0.00000904,-0.00000568,0.00000064,-0.00
 002357,0.00002748,-0.00000195,0.00007142,-0.00001583,0.00000308,-0.000
 05864,-0.00007521,0.00000518,0.00037573,0.00010085,0.00001049,-0.00218
 277,0.00077087,-0.00021139,-0.00274024,-0.01383814,0.00032809,-0.01353
 656,-0.33078128,0.00671359,0.00104858,-0.01139625,0.00044377,0.0021723
 4,0.00072503,-0.00002306,-0.00006512,-0.00001580,0.00000432,-0.0000303
 0,0.00003703,-0.00000108,-0.00019451,-0.00010150,-0.00000014,-0.000010
 80,-0.00017083,-0.00002410,0.00020863,-0.00014505,0.00001886,0.0000047
 0,0.00002336,-0.00000039,-0.00000013,-0.00000580,0.00000021,0.00000524
 ,-0.00000067,0.00000028,0.00001107,-0.00000159,0.00000058,-0.00000098,
 -0.00000185,0.00000002,0.00000119,0.00000389,-0.00000002,0.00000792,0.
 00000826,0.00000029,0.00000903,0.00002007,0.00000062,0.00089640,0.0005
 3212,0.00003233,0.01461926,0.35211312,0.00001904,0.00001669,-0.0000619
 7,0.00001716,-0.00001941,-0.00022759,-0.00000363,-0.00003998,0.0001180
 6,-0.00041619,0.00008778,0.00605074,-0.00001316,-0.00002563,-0.0005207
 4,-0.00052740,0.00017766,0.00568057,0.00002938,0.00007913,0.00015569,0
 .00001842,-0.00000391,-0.00019671,-0.00000212,-0.00000464,0.00005607,0
 .00000085,0.00000201,-0.00001338,-0.00000103,-0.00000241,-0.00000092,-
 0.00000107,0.00000104,-0.00000687,0.00000013,-0.00000095,0.00000037,-0
 .00000193,0.00000365,0.00000382,-0.00000026,0.00000241,0.00000901,0.00
 000193,-0.00000172,-0.00002802,0.00000008,0.00000025,0.00000346,0.0000
 0145,-0.00000288,-0.00000804,-0.00000306,0.00000300,-0.00002185,-0.000
 00968,0.00000710,0.00023890,0.00000411,-0.00002703,-0.00015898,0.00028
 387,-0.00003706,-0.00374485,0.00009294,0.00163950,0.00427934,-0.000661
 08,0.00671942,-0.03670955,-0.00012496,-0.00086495,0.00454316,0.0001894
 8,-0.00019951,-0.00413122,-0.00001046,0.00000774,0.00027544,-0.0000023
 1,0.00000314,0.00004839,-0.00002261,0.00000021,0.00024508,0.00005302,-
 0.00002398,-0.00111648,-0.00002963,0.00001877,0.00023190,-0.00000063,-
 0.00000177,-0.00000087,-0.00000008,0.00000019,0.00000302,-0.00000024,-
 0.00000005,0.00000102,-0.00000057,0.00000023,0.00000162,0.00000032,0.0
 0000007,0.00000057,0.00000020,-0.00000019,0.00000107,-0.00000058,-0.00
 000006,0.00000555,-0.00000184,-0.00000095,0.00002833,-0.00005148,-0.00
 004559,0.00020264,0.00118052,-0.00749857,0.02458522,0.00295842,-0.0294
 7467,0.00064079,-0.00447009,-0.00121514,-0.00055441,-0.00075004,0.0000
 4508,-0.00000990,-0.00435135,0.00124854,-0.00042547,0.00044771,0.00129
 943,-0.00001875,0.00020743,0.00007846,0.00001589,-0.00005405,-0.000052
 03,-0.00000279,-0.00001811,0.00004832,-0.00000144,0.00000059,-0.000006
 21,0.00000024,0.00000214,-0.00000113,0.00000019,-0.00000299,-0.0000040
 1,0.00000003,-0.00000277,0.00000515,-0.00000021,0.00000283,-0.00000668
 ,0.00000032,-0.00000525,0.00001553,-0.00000060,0.00000569,0.00000599,0
 .00000018,0.00000126,0.00000172,-0.00000005,0.00000649,0.00000046,0.00
 000035,0.00000089,-0.00000994,0.00000038,-0.00000647,0.00000940,-0.000
 00036,0.00000105,-0.00000750,0.00000076,0.00004065,-0.00001313,0.00000
 229,-0.00004602,0.00000102,-0.00000878,0.00015164,-0.00043384,0.000025
 91,0.00135658,0.00150973,0.00014204,0.00446276,0.02625405,-0.00061836,
 -0.05852177,-0.01274319,-0.00063685,0.00121631,0.00045507,0.00029306,-
 0.00000599,-0.00132676,0.00002408,0.00010768,-0.00001702,0.00005865,-0
 .00032219,0.00021486,-0.00003103,0.00001174,-0.00002260,0.00000047,0.0
 0000019,0.00000073,-0.00000010,0.00000010,-0.00000096,-0.00000002,0.00
 000095,-0.00000079,0.00000003,-0.00000065,0.00000116,-0.00000009,0.000
 00230,-0.00000044,0.00000007,0.00000173,0.,0.00000004,-0.00000134,0.00
 000079,-0.00000018,-0.00000075,-0.00000316,-0.00000021,-0.00002930,-0.
 00001107,-0.00000118,-0.00040269,-0.00078103,-0.00000689,0.05800472,0.
 00214399,-0.01049885,0.00048307,-0.00292196,0.00102717,0.00005320,0.00
 022199,0.00074262,-0.00002229,0.00300879,0.00067321,0.00022815,-0.0006
 9801,-0.00071626,-0.00001006,-0.00001089,0.00018854,-0.00000985,-0.000
 03061,0.00011542,-0.00000335,0.00008236,0.00004809,0.00000221,-0.00003
 256,0.00003141,-0.00000229,0.00001491,-0.00001323,0.00000097,0.0000010
 3,0.00001432,-0.00000034,0.00001963,-0.00000606,0.00000102,-0.00000394
 ,-0.00000997,0.00000006,0.00001259,-0.00000941,0.00000079,0.00000751,-
 0.00001879,0.00000077,-0.00000091,0.00001522,-0.00000039,0.00001177,0.
 00000003,0.00000050,-0.00000653,-0.00000041,-0.00000034,0.00002764,0.0
 0000773,0.00000097,-0.00004039,-0.00002817,-0.00000141,0.00004885,-0.0
 0008442,0.00000424,-0.00009866,-0.00008993,0.00000146,0.00042451,0.000
 23121,0.00000888,-0.00202437,0.00074167,-0.00017512,-0.00294479,-0.013
 27009,0.00028898,-0.01319790,-0.33352925,0.00677500,-0.00017870,0.0009
 1648,-0.00016829,0.00014395,-0.00056652,0.00002539,-0.00000186,-0.0001
 1339,-0.00002665,0.00020724,-0.00013989,0.00001897,-0.00002441,-0.0000
 0060,-0.00000074,-0.00000305,0.00000573,-0.00000023,0.00000010,-0.0000
 0478,0.00000015,0.00000362,-0.00000175,0.00000022,0.00000587,0.0000006
 7,0.00000026,0.00000174,-0.00000206,0.00000015,0.00000379,0.00000198,0
 .00000014,0.00000362,0.00000674,0.00000005,-0.00000392,-0.00000356,0.0
 0000005,0.00001767,0.00002057,0.00000036,0.00087447,0.00051235,0.00003
 124,0.01493582,0.35380624,-0.00014630,-0.00094571,0.00503188,-0.000511
 92,0.00013032,0.00844192,-0.00001430,-0.00003029,-0.00055571,-0.000469
 29,0.00014860,0.00435153,0.00003097,0.00008020,0.00014621,0.00001811,-
 0.00000581,-0.00018638,-0.00000333,-0.00000432,0.00003638,-0.00000229,
 0.00000067,-0.00001288,0.00000090,-0.00000110,-0.00000128,-0.00000021,
 0.00000024,-0.00000145,-0.00000010,-0.00000057,-0.00000132,-0.00000057
 ,0.00000036,-0.00000096,0.00000025,-0.00000007,-0.00000053,-0.00000053
 ,0.00000092,-0.00000060,0.00000014,0.00000070,-0.00000165,0.00000002,-
 0.00000027,0.00000137,0.00000006,-0.00000002,-0.00000142,0.00000030,-0
 .00000049,-0.00000205,-0.00000082,0.00000014,-0.00000363,0.00000157,0.
 00000007,-0.00001149,0.00000075,0.00000144,-0.00000289,-0.00000630,0.0
 0000596,0.00014730,0.00000454,-0.00002991,-0.00018179,0.00023001,-0.00
 001542,-0.00260755,0.00010849,0.00160841,0.00364905,-0.00062553,0.0067
 9555,-0.03760579,0.00030883,-0.00013965,-0.00550228,-0.00001253,-0.000
 04107,0.00019247,0.00005827,-0.00002734,-0.00117746,-0.00003084,0.0000
 1932,0.00024423,0.00000051,-0.00000066,0.00001388,0.,-0.00000006,0.000
 00194,-0.00000005,0.00000010,0.00000104,-0.00000008,0.00000003,0.00000
 071,-0.00000020,0.00000005,0.00000061,0.00000002,0.00000005,0.00000090
 ,-0.00000006,-0.00000003,0.00000091,-0.00000025,-0.00000008,0.00000221
 ,-0.00000019,0.00000008,0.00000553,-0.00000189,-0.00000094,0.00000278,
 -0.00004810,-0.00004356,0.00017900,0.00111192,-0.00750587,0.02540725\\
 0.00001549,-0.00000722,0.00000088,0.00001612,0.00000571,0.00000059,-0.
 00001318,-0.00001324,-0.00000027,0.00003202,0.00002316,0.00000087,-0.0
 0002424,-0.00001903,-0.00000062,0.00002315,0.00002730,0.00000037,-0.00
 001628,-0.00000402,-0.00000064,0.00000761,-0.00001466,0.00000071,-0.00
 005499,-0.00002587,-0.00000184,0.00003824,0.00001346,0.00000139,-0.000
 04251,0.00000038,-0.00000193,0.00002552,0.00003156,0.00000037,-0.00002
 794,-0.00000029,-0.00000126,0.00003653,0.00003713,0.00000073,0.0000327
 5,-0.00004043,0.00000249,-0.00002778,0.00000294,-0.00000133,0.00002234
 ,-0.00003384,0.00000185,-0.00004235,0.00000366,-0.00000200,0.00003675,
 -0.00001703,0.00000208,-0.00005222,0.00003098,-0.00000313,0.00000900,0
 .00001386,0.00000006,-0.00001582,0.00000555,-0.00000085,0.00002039,-0.
 00002937,0.00000165,-0.00002228,0.00002125,-0.00000154,0.00002962,-0.0
 0002610,0.00000199,-0.00001184,0.00001443,-0.00000089,-0.00000590,0.00
 000737,-0.00000045,-0.00000659,-0.00000678,-0.00000013,-0.00001173,0.0
 0000282,-0.00000060,-0.00000044,0.00001015,-0.00000027,0.00001467,0.00
 000543,0.00000053,-0.00000824,-0.00000041,-0.00000036,-0.00000286,-0.0
 0000606,0.00000002,0.00000662,0.00000105,0.00000027,0.00001303,0.00002
 459,-0.00000002,0.00001058,-0.00002572,0.00000112,0.00000649,-0.000001
 68,0.00000033,-0.00000226,0.00000630,-0.00000026,-0.00000816,0.0000012
 0,-0.00000040,0.00001407,-0.00000680,0.00000081,-0.00000143,-0.0000100
 6,0.00000019,-0.00001194,-0.00000169,-0.00000050\\\@
 The archive entry for this job was punched.


 IT IS A CAPITAL MISTAKE TO THEORIZE BEFORE ONE HAS
 DATA.  INSENSIBLY ONE BEGINS TO TWIST FACTS TO SUIT
 THEORIES RATHER THAN THEORIES TO SUIT FACTS.

                                         -- SHERLOCK HOLMES
 Job cpu time:       0 days  0 hours 58 minutes 18.7 seconds.
 Elapsed time:       0 days  0 hours  7 minutes 17.4 seconds.
 File lengths (MBytes):  RWF=    480 Int=      0 D2E=      0 Chk=     15 Scr=      1
 Normal termination of Gaussian 16 at Tue Oct  8 23:21:25 2024.
