 Entering Gaussian System, Link 0=g16
 Initial command:
 /home/software/g16/l1.exe "/home/software/g16/scr/Gau-178588.inp" -scrdir="/home/software/g16/scr/"
 Default is to use a total of   8 processors:
                                8 via shared-memory
                                1 via Linda
 Entering Link 1 = /home/software/g16/l1.exe PID=    178589.
  
 Copyright (c) 1988-2019, Gaussian, Inc.  All Rights Reserved.
  
 This is part of the Gaussian(R) 16 program.  It is based on
 the Gaussian(R) 09 system (copyright 2009, Gaussian, Inc.),
 the Gaussian(R) 03 system (copyright 2003, Gaussian, Inc.),
 the Gaussian(R) 98 system (copyright 1998, Gaussian, Inc.),
 the Gaussian(R) 94 system (copyright 1995, Gaussian, Inc.),
 the Gaussian 92(TM) system (copyright 1992, Gaussian, Inc.),
 the Gaussian 90(TM) system (copyright 1990, Gaussian, Inc.),
 the Gaussian 88(TM) system (copyright 1988, Gaussian, Inc.),
 the Gaussian 86(TM) system (copyright 1986, Carnegie Mellon
 University), and the Gaussian 82(TM) system (copyright 1983,
 Carnegie Mellon University). Gaussian is a federally registered
 trademark of Gaussian, Inc.
  
 This software contains proprietary and confidential information,
 including trade secrets, belonging to Gaussian, Inc.
  
 This software is provided under written license and may be
 used, copied, transmitted, or stored only in accord with that
 written license.
  
 The following legend is applicable only to US Government
 contracts under FAR:
  
                    RESTRICTED RIGHTS LEGEND
  
 Use, reproduction and disclosure by the US Government is
 subject to restrictions as set forth in subparagraphs (a)
 and (c) of the Commercial Computer Software - Restricted
 Rights clause in FAR 52.227-19.
  
 Gaussian, Inc.
 340 Quinnipiac St., Bldg. 40, Wallingford CT 06492
  
  
 ---------------------------------------------------------------
 Warning -- This program may not be used in any manner that
 competes with the business of Gaussian, Inc. or will provide
 assistance to any competitor of Gaussian, Inc.  The licensee
 of this program is prohibited from giving any competitor of
 Gaussian, Inc. access to this program.  By using this program,
 the user acknowledges that Gaussian, Inc. is engaged in the
 business of creating and licensing software in the field of
 computational chemistry and represents and warrants to the
 licensee that it is not a competitor of Gaussian, Inc. and that
 it will not use this program in any manner prohibited above.
 ---------------------------------------------------------------
  

 Cite this work as:
 Gaussian 16, Revision C.01,
 M. J. Frisch, G. W. Trucks, H. B. Schlegel, G. E. Scuseria, 
 M. A. Robb, J. R. Cheeseman, G. Scalmani, V. Barone, 
 G. A. Petersson, H. Nakatsuji, X. Li, M. Caricato, A. V. Marenich, 
 J. Bloino, B. G. Janesko, R. Gomperts, B. Mennucci, H. P. Hratchian, 
 J. V. Ortiz, A. F. Izmaylov, J. L. Sonnenberg, D. Williams-Young, 
 F. Ding, F. Lipparini, F. Egidi, J. Goings, B. Peng, A. Petrone, 
 T. Henderson, D. Ranasinghe, V. G. Zakrzewski, J. Gao, N. Rega, 
 G. Zheng, W. Liang, M. Hada, M. Ehara, K. Toyota, R. Fukuda, 
 J. Hasegawa, M. Ishida, T. Nakajima, Y. Honda, O. Kitao, H. Nakai, 
 T. Vreven, K. Throssell, J. A. Montgomery, Jr., J. E. Peralta, 
 F. Ogliaro, M. J. Bearpark, J. J. Heyd, E. N. Brothers, K. N. Kudin, 
 V. N. Staroverov, T. A. Keith, R. Kobayashi, J. Normand, 
 K. Raghavachari, A. P. Rendell, J. C. Burant, S. S. Iyengar, 
 J. Tomasi, M. Cossi, J. M. Millam, M. Klene, C. Adamo, R. Cammi, 
 J. W. Ochterski, R. L. Martin, K. Morokuma, O. Farkas, 
 J. B. Foresman, and D. J. Fox, Gaussian, Inc., Wallingford CT, 2019.
 
 ******************************************
 Gaussian 16:  ES64L-G16RevC.01  3-Jul-2019
                12-Mar-2024 
 ******************************************
 %nprocshared=16
 Will use up to   16 processors via shared memory.
 %mem=5760MB
 ----------------------------------------------------------------------
 #N opt freq B3LYP/def2SVPP symm=veryloose em=gd3bj scale=0.961 press=0
 .987
 ----------------------------------------------------------------------
 1/18=20,19=15,26=3,38=1,113=-987000,114=961000/1,3;
 2/9=110,12=2,17=2,18=2,40=1/2;
 3/5=43,7=202,11=2,25=1,30=1,71=1,74=-5,124=41/1,2,3;
 4//1;
 5/5=2,38=5/2;
 6/7=2,8=2,9=2,10=2,28=1/1;
 7//1,2,3,16;
 1/18=20,19=15,26=3/3(2);
 2/9=110/2;
 99//99;
 2/9=110/2;
 3/5=43,7=202,11=2,25=1,30=1,71=1,74=-5,124=41/1,2,3;
 4/5=5,16=3,69=1/1;
 5/5=2,38=5/2;
 7//1,2,3,16;
 1/18=20,19=15,26=3/3(-5);
 2/9=110/2;
 6/7=2,8=2,9=2,10=2,19=2,28=1/1;
 99/9=1/99;
 ------------------------------
 c1ccc2c(c1)c1ccccc1c1ccccc21_1
 ------------------------------
 Symbolic Z-matrix:
 Charge =  0 Multiplicity = 1
 C                     3.2749    1.87423   0.08574 
 C                     3.73429   0.58278  -0.01252 
 C                     2.8161   -0.46561  -0.08015 
 C                     1.40595  -0.26761  -0.05649 
 C                     0.93371   1.07034  -0.01035 
 C                     1.90029   2.11089   0.08024 
 C                    -0.4736    1.33238  -0.03461 
 C                    -1.00116   2.64487  -0.18894 
 C                    -2.36681   2.92225  -0.17492 
 C                    -3.25884   1.8938    0.0269 
 C                    -2.77904   0.58953   0.15279 
 C                    -1.39586   0.25918   0.07775 
 C                    -0.9197   -1.09256   0.07766 
 C                    -1.79389  -2.21264   0.16947 
 C                    -1.35598  -3.53301   0.0725 
 C                    -0.01674  -3.78379  -0.12502 
 C                     0.87512  -2.71433  -0.17987 
 C                     0.47025  -1.35436  -0.05812 
 H                     3.97062   2.70527   0.17424 
 H                     4.80126   0.37562  -0.01563 
 H                     3.24311  -1.46247  -0.12545 
 H                     1.59532   3.1483    0.1891 
 H                    -0.34544   3.49236  -0.36633 
 H                    -2.71997   3.93845  -0.32072 
 H                    -4.32599   2.08843   0.06477 
 H                    -3.5342   -0.17819   0.29142 
 H                    -2.86252  -2.0816    0.31188 
 H                    -2.06744  -4.35128   0.1366 
 H                     0.34369  -4.80315  -0.23217 
 H                     1.9165   -2.97671  -0.33838 
 

 GradGradGradGradGradGradGradGradGradGradGradGradGradGradGradGradGradGrad
 Berny optimization.
 Initialization pass.
                           ----------------------------
                           !    Initial Parameters    !
                           ! (Angstroms and Degrees)  !
 --------------------------                            --------------------------
 ! Name  Definition              Value          Derivative Info.                !
 --------------------------------------------------------------------------------
 ! R1    R(1,2)                  1.3742         estimate D2E/DX2                !
 ! R2    R(1,6)                  1.3948         estimate D2E/DX2                !
 ! R3    R(1,19)                 1.0874         estimate D2E/DX2                !
 ! R4    R(2,3)                  1.3953         estimate D2E/DX2                !
 ! R5    R(2,20)                 1.0869         estimate D2E/DX2                !
 ! R6    R(3,4)                  1.4242         estimate D2E/DX2                !
 ! R7    R(3,21)                 1.0854         estimate D2E/DX2                !
 ! R8    R(4,5)                  1.4196         estimate D2E/DX2                !
 ! R9    R(4,18)                 1.4341         estimate D2E/DX2                !
 ! R10   R(5,6)                  1.4231         estimate D2E/DX2                !
 ! R11   R(5,7)                  1.4317         estimate D2E/DX2                !
 ! R12   R(6,22)                 1.0868         estimate D2E/DX2                !
 ! R13   R(7,8)                  1.4229         estimate D2E/DX2                !
 ! R14   R(7,12)                 1.4195         estimate D2E/DX2                !
 ! R15   R(8,9)                  1.3936         estimate D2E/DX2                !
 ! R16   R(8,23)                 1.0861         estimate D2E/DX2                !
 ! R17   R(9,10)                 1.3763         estimate D2E/DX2                !
 ! R18   R(9,24)                 1.0857         estimate D2E/DX2                !
 ! R19   R(10,11)                1.3954         estimate D2E/DX2                !
 ! R20   R(10,25)                1.0854         estimate D2E/DX2                !
 ! R21   R(11,12)                1.4241         estimate D2E/DX2                !
 ! R22   R(11,26)                1.0858         estimate D2E/DX2                !
 ! R23   R(12,13)                1.4332         estimate D2E/DX2                !
 ! R24   R(13,14)                1.4238         estimate D2E/DX2                !
 ! R25   R(13,18)                1.4209         estimate D2E/DX2                !
 ! R26   R(14,15)                1.3945         estimate D2E/DX2                !
 ! R27   R(14,27)                1.086          estimate D2E/DX2                !
 ! R28   R(15,16)                1.3768         estimate D2E/DX2                !
 ! R29   R(15,28)                1.0862         estimate D2E/DX2                !
 ! R30   R(16,17)                1.3936         estimate D2E/DX2                !
 ! R31   R(16,29)                1.0865         estimate D2E/DX2                !
 ! R32   R(17,18)                1.4242         estimate D2E/DX2                !
 ! R33   R(17,30)                1.0856         estimate D2E/DX2                !
 ! A1    A(2,1,6)              119.2487         estimate D2E/DX2                !
 ! A2    A(2,1,19)             120.6729         estimate D2E/DX2                !
 ! A3    A(6,1,19)             120.077          estimate D2E/DX2                !
 ! A4    A(1,2,3)              119.3145         estimate D2E/DX2                !
 ! A5    A(1,2,20)             120.4959         estimate D2E/DX2                !
 ! A6    A(3,2,20)             120.1759         estimate D2E/DX2                !
 ! A7    A(2,3,4)              123.1151         estimate D2E/DX2                !
 ! A8    A(2,3,21)             115.6721         estimate D2E/DX2                !
 ! A9    A(4,3,21)             121.1922         estimate D2E/DX2                !
 ! A10   A(3,4,5)              117.4486         estimate D2E/DX2                !
 ! A11   A(3,4,18)             122.7296         estimate D2E/DX2                !
 ! A12   A(5,4,18)             119.8155         estimate D2E/DX2                !
 ! A13   A(4,5,6)              117.7268         estimate D2E/DX2                !
 ! A14   A(4,5,7)              119.9299         estimate D2E/DX2                !
 ! A15   A(6,5,7)              122.3361         estimate D2E/DX2                !
 ! A16   A(1,6,5)              123.0619         estimate D2E/DX2                !
 ! A17   A(1,6,22)             115.9837         estimate D2E/DX2                !
 ! A18   A(5,6,22)             120.9139         estimate D2E/DX2                !
 ! A19   A(5,7,8)              122.3502         estimate D2E/DX2                !
 ! A20   A(5,7,12)             119.9289         estimate D2E/DX2                !
 ! A21   A(8,7,12)             117.7143         estimate D2E/DX2                !
 ! A22   A(7,8,9)              123.0802         estimate D2E/DX2                !
 ! A23   A(7,8,23)             120.9039         estimate D2E/DX2                !
 ! A24   A(9,8,23)             115.9731         estimate D2E/DX2                !
 ! A25   A(8,9,10)             119.2016         estimate D2E/DX2                !
 ! A26   A(8,9,24)             120.2468         estimate D2E/DX2                !
 ! A27   A(10,9,24)            120.5516         estimate D2E/DX2                !
 ! A28   A(9,10,11)            119.2636         estimate D2E/DX2                !
 ! A29   A(9,10,25)            120.5546         estimate D2E/DX2                !
 ! A30   A(11,10,25)           120.1662         estimate D2E/DX2                !
 ! A31   A(10,11,12)           123.0959         estimate D2E/DX2                !
 ! A32   A(10,11,26)           115.6752         estimate D2E/DX2                !
 ! A33   A(12,11,26)           121.2147         estimate D2E/DX2                !
 ! A34   A(7,12,11)            117.3772         estimate D2E/DX2                !
 ! A35   A(7,12,13)            119.8168         estimate D2E/DX2                !
 ! A36   A(11,12,13)           122.7866         estimate D2E/DX2                !
 ! A37   A(12,13,14)           122.5472         estimate D2E/DX2                !
 ! A38   A(12,13,18)           119.9207         estimate D2E/DX2                !
 ! A39   A(14,13,18)           117.5051         estimate D2E/DX2                !
 ! A40   A(13,14,15)           123.2014         estimate D2E/DX2                !
 ! A41   A(13,14,27)           121.1773         estimate D2E/DX2                !
 ! A42   A(15,14,27)           115.6184         estimate D2E/DX2                !
 ! A43   A(14,15,16)           119.2043         estimate D2E/DX2                !
 ! A44   A(14,15,28)           120.232          estimate D2E/DX2                !
 ! A45   A(16,15,28)           120.5566         estimate D2E/DX2                !
 ! A46   A(15,16,17)           119.2344         estimate D2E/DX2                !
 ! A47   A(15,16,29)           120.5133         estimate D2E/DX2                !
 ! A48   A(17,16,29)           120.2516         estimate D2E/DX2                !
 ! A49   A(16,17,18)           123.1963         estimate D2E/DX2                !
 ! A50   A(16,17,30)           115.7333         estimate D2E/DX2                !
 ! A51   A(18,17,30)           121.0645         estimate D2E/DX2                !
 ! A52   A(4,18,13)            119.903          estimate D2E/DX2                !
 ! A53   A(4,18,17)            122.5648         estimate D2E/DX2                !
 ! A54   A(13,18,17)           117.5297         estimate D2E/DX2                !
 ! D1    D(6,1,2,3)             -1.6735         estimate D2E/DX2                !
 ! D2    D(6,1,2,20)           179.6683         estimate D2E/DX2                !
 ! D3    D(19,1,2,3)           177.8863         estimate D2E/DX2                !
 ! D4    D(19,1,2,20)           -0.772          estimate D2E/DX2                !
 ! D5    D(2,1,6,5)              0.6189         estimate D2E/DX2                !
 ! D6    D(2,1,6,22)           178.3189         estimate D2E/DX2                !
 ! D7    D(19,1,6,5)          -178.9435         estimate D2E/DX2                !
 ! D8    D(19,1,6,22)           -1.2435         estimate D2E/DX2                !
 ! D9    D(1,2,3,4)              0.1915         estimate D2E/DX2                !
 ! D10   D(1,2,3,21)          -178.1757         estimate D2E/DX2                !
 ! D11   D(20,2,3,4)           178.8542         estimate D2E/DX2                !
 ! D12   D(20,2,3,21)            0.4869         estimate D2E/DX2                !
 ! D13   D(2,3,4,5)              2.3358         estimate D2E/DX2                !
 ! D14   D(2,3,4,18)          -176.749          estimate D2E/DX2                !
 ! D15   D(21,3,4,5)          -179.3845         estimate D2E/DX2                !
 ! D16   D(21,3,4,18)            1.5306         estimate D2E/DX2                !
 ! D17   D(3,4,5,6)             -3.2502         estimate D2E/DX2                !
 ! D18   D(3,4,5,7)            177.7005         estimate D2E/DX2                !
 ! D19   D(18,4,5,6)           175.8625         estimate D2E/DX2                !
 ! D20   D(18,4,5,7)            -3.1868         estimate D2E/DX2                !
 ! D21   D(3,4,18,13)          174.8069         estimate D2E/DX2                !
 ! D22   D(3,4,18,17)           -4.6066         estimate D2E/DX2                !
 ! D23   D(5,4,18,13)           -4.2571         estimate D2E/DX2                !
 ! D24   D(5,4,18,17)          176.3295         estimate D2E/DX2                !
 ! D25   D(4,5,6,1)              1.9222         estimate D2E/DX2                !
 ! D26   D(4,5,6,22)          -175.6678         estimate D2E/DX2                !
 ! D27   D(7,5,6,1)           -179.053          estimate D2E/DX2                !
 ! D28   D(7,5,6,22)             3.357          estimate D2E/DX2                !
 ! D29   D(4,5,7,8)           -170.5333         estimate D2E/DX2                !
 ! D30   D(4,5,7,12)             8.512          estimate D2E/DX2                !
 ! D31   D(6,5,7,8)             10.4627         estimate D2E/DX2                !
 ! D32   D(6,5,7,12)          -170.492          estimate D2E/DX2                !
 ! D33   D(5,7,8,9)           -178.0351         estimate D2E/DX2                !
 ! D34   D(5,7,8,23)             4.4438         estimate D2E/DX2                !
 ! D35   D(12,7,8,9)             2.8996         estimate D2E/DX2                !
 ! D36   D(12,7,8,23)         -174.6215         estimate D2E/DX2                !
 ! D37   D(5,7,12,11)          175.1996         estimate D2E/DX2                !
 ! D38   D(5,7,12,13)           -6.358          estimate D2E/DX2                !
 ! D39   D(8,7,12,11)           -5.7115         estimate D2E/DX2                !
 ! D40   D(8,7,12,13)          172.7309         estimate D2E/DX2                !
 ! D41   D(7,8,9,10)             1.5285         estimate D2E/DX2                !
 ! D42   D(7,8,9,24)          -178.532          estimate D2E/DX2                !
 ! D43   D(23,8,9,10)          179.1626         estimate D2E/DX2                !
 ! D44   D(23,8,9,24)           -0.8979         estimate D2E/DX2                !
 ! D45   D(8,9,10,11)           -2.8525         estimate D2E/DX2                !
 ! D46   D(8,9,10,25)          178.5851         estimate D2E/DX2                !
 ! D47   D(24,9,10,11)         177.2082         estimate D2E/DX2                !
 ! D48   D(24,9,10,25)          -1.3542         estimate D2E/DX2                !
 ! D49   D(9,10,11,12)          -0.2411         estimate D2E/DX2                !
 ! D50   D(9,10,11,26)        -178.8863         estimate D2E/DX2                !
 ! D51   D(25,10,11,12)        178.327          estimate D2E/DX2                !
 ! D52   D(25,10,11,26)         -0.3182         estimate D2E/DX2                !
 ! D53   D(10,11,12,7)           4.626          estimate D2E/DX2                !
 ! D54   D(10,11,12,13)       -173.7665         estimate D2E/DX2                !
 ! D55   D(26,11,12,7)        -176.8018         estimate D2E/DX2                !
 ! D56   D(26,11,12,13)          4.8058         estimate D2E/DX2                !
 ! D57   D(7,12,13,14)        -179.1529         estimate D2E/DX2                !
 ! D58   D(7,12,13,18)          -1.0913         estimate D2E/DX2                !
 ! D59   D(11,12,13,14)         -0.7982         estimate D2E/DX2                !
 ! D60   D(11,12,13,18)        177.2634         estimate D2E/DX2                !
 ! D61   D(12,13,14,15)        175.1544         estimate D2E/DX2                !
 ! D62   D(12,13,14,27)         -4.2063         estimate D2E/DX2                !
 ! D63   D(18,13,14,15)         -2.9514         estimate D2E/DX2                !
 ! D64   D(18,13,14,27)        177.6878         estimate D2E/DX2                !
 ! D65   D(12,13,18,4)           6.4033         estimate D2E/DX2                !
 ! D66   D(12,13,18,17)       -174.1541         estimate D2E/DX2                !
 ! D67   D(14,13,18,4)        -175.4389         estimate D2E/DX2                !
 ! D68   D(14,13,18,17)          4.0037         estimate D2E/DX2                !
 ! D69   D(13,14,15,16)         -0.169          estimate D2E/DX2                !
 ! D70   D(13,14,15,28)       -179.2053         estimate D2E/DX2                !
 ! D71   D(27,14,15,16)        179.2245         estimate D2E/DX2                !
 ! D72   D(27,14,15,28)          0.1882         estimate D2E/DX2                !
 ! D73   D(14,15,16,17)          2.0685         estimate D2E/DX2                !
 ! D74   D(14,15,16,29)       -178.2369         estimate D2E/DX2                !
 ! D75   D(28,15,16,17)       -178.8984         estimate D2E/DX2                !
 ! D76   D(28,15,16,29)          0.7962         estimate D2E/DX2                !
 ! D77   D(15,16,17,18)         -0.8373         estimate D2E/DX2                !
 ! D78   D(15,16,17,30)       -179.957          estimate D2E/DX2                !
 ! D79   D(29,16,17,18)        179.4673         estimate D2E/DX2                !
 ! D80   D(29,16,17,30)          0.3476         estimate D2E/DX2                !
 ! D81   D(16,17,18,4)         177.1317         estimate D2E/DX2                !
 ! D82   D(16,17,18,13)         -2.2949         estimate D2E/DX2                !
 ! D83   D(30,17,18,4)          -3.794          estimate D2E/DX2                !
 ! D84   D(30,17,18,13)        176.7793         estimate D2E/DX2                !
 --------------------------------------------------------------------------------
 Trust Radius=3.00D-01 FncErr=1.00D-07 GrdErr=1.00D-06 EigMax=2.50D+02 EigMin=1.00D-04
 Number of steps in this run=    180 maximum allowed number of steps=    180.
 GradGradGradGradGradGradGradGradGradGradGradGradGradGradGradGradGradGrad

                          Input orientation:                          
 ---------------------------------------------------------------------
 Center     Atomic      Atomic             Coordinates (Angstroms)
 Number     Number       Type             X           Y           Z
 ---------------------------------------------------------------------
      1          6           0        3.274900    1.874230    0.085740
      2          6           0        3.734290    0.582780   -0.012520
      3          6           0        2.816100   -0.465610   -0.080150
      4          6           0        1.405950   -0.267610   -0.056490
      5          6           0        0.933710    1.070340   -0.010350
      6          6           0        1.900290    2.110890    0.080240
      7          6           0       -0.473600    1.332380   -0.034610
      8          6           0       -1.001160    2.644870   -0.188940
      9          6           0       -2.366810    2.922250   -0.174920
     10          6           0       -3.258840    1.893800    0.026900
     11          6           0       -2.779040    0.589530    0.152790
     12          6           0       -1.395860    0.259180    0.077750
     13          6           0       -0.919700   -1.092560    0.077660
     14          6           0       -1.793890   -2.212640    0.169470
     15          6           0       -1.355980   -3.533010    0.072500
     16          6           0       -0.016740   -3.783790   -0.125020
     17          6           0        0.875120   -2.714330   -0.179870
     18          6           0        0.470250   -1.354360   -0.058120
     19          1           0        3.970620    2.705270    0.174240
     20          1           0        4.801260    0.375620   -0.015630
     21          1           0        3.243110   -1.462470   -0.125450
     22          1           0        1.595320    3.148300    0.189100
     23          1           0       -0.345440    3.492360   -0.366330
     24          1           0       -2.719970    3.938450   -0.320720
     25          1           0       -4.325990    2.088430    0.064770
     26          1           0       -3.534200   -0.178190    0.291420
     27          1           0       -2.862520   -2.081600    0.311880
     28          1           0       -2.067440   -4.351280    0.136600
     29          1           0        0.343690   -4.803150   -0.232170
     30          1           0        1.916500   -2.976710   -0.338380
 ---------------------------------------------------------------------
                    Distance matrix (angstroms):
                    1          2          3          4          5
     1  C    0.000000
     2  C    1.374241   0.000000
     3  C    2.390161   1.395266   0.000000
     4  C    2.846170   2.479166   1.424179   0.000000
     5  C    2.477225   2.842704   2.430516   1.419595   0.000000
     6  C    1.394844   2.388992   2.739121   2.433173   1.423105
     7  C    3.789372   4.274193   3.749262   2.468432   1.431704
     8  C    4.353622   5.167961   4.925281   3.780775   2.500952
     9  C    5.744143   6.536277   6.192668   4.941958   3.788151
    10  C    6.534034   7.115068   6.517912   5.141878   4.272815
    11  C    6.189115   6.515431   5.698524   4.276988   3.747306
    12  C    4.942110   5.141138   4.276781   2.854062   2.468327
    13  C    5.137760   4.947173   3.791329   2.471272   2.849739
    14  C    6.511693   6.197440   4.936237   3.751423   4.272013
    15  C    7.119232   6.546587   5.180588   4.278754   5.142021
    16  C    6.549237   5.757588   4.363177   3.793714   4.947634
    17  C    5.185015   4.367355   2.972220   2.506679   3.788918
    18  C    4.279083   3.795859   2.508660   1.434072   2.469058
    19  H    1.087422   2.143757   3.384097   3.933038   3.453968
    20  H    2.141467   1.086899   2.157010   3.455943   3.929454
    21  H    3.343528   2.106433   1.085412   2.192625   3.429534
    22  H    2.110670   3.346302   3.824022   3.429959   2.189846
    23  H    3.991187   5.023448   5.073732   4.159416   2.762088
    24  H    6.353320   7.281001   7.078255   5.897794   4.655294
    25  H    7.603936   8.200065   7.586407   6.198449   5.357854
    26  H    7.114673   7.314534   6.367651   4.953193   4.648883
    27  H    7.305317   7.121942   5.917080   4.652536   4.944686
    28  H    8.203667   7.617562   6.244548   5.364521   6.198585
    29  H    7.299347   6.368097   4.995015   4.661586   5.907217
    30  H    5.055368   4.010052   2.679848   2.771163   4.177570
                    6          7          8          9         10
     6  C    0.000000
     7  C    2.500924   0.000000
     8  C    2.962432   1.422943   0.000000
     9  C    4.351041   2.476210   1.393605   0.000000
    10  C    5.163971   2.841925   2.389103   1.376284   0.000000
    11  C    4.920968   2.429403   2.738989   2.391424   1.395413
    12  C    3.780667   1.419488   2.432782   2.845791   2.478964
    13  C    4.267838   2.468186   3.747812   4.275117   3.793745
    14  C    5.687516   3.788401   4.934803   5.178218   4.362253
    15  C    6.515901   4.945916   6.193581   6.538607   5.750932
    16  C    6.201966   5.137323   6.503909   7.106074   6.539826
    17  C    4.939775   4.268022   5.678163   6.502397   6.194130
    18  C    3.751282   2.847802   4.263332   5.133415   4.946098
    19  H    2.156012   4.656129   4.985393   6.350749   7.276351
    20  H    3.381713   5.360961   6.232785   7.608674   8.201944
    21  H    3.822875   4.651169   5.906615   7.120352   7.318682
    22  H    1.086774   2.761891   2.671716   3.985233   5.016268
    23  H    2.674170   2.189058   1.086129   2.108933   3.346330
    24  H    4.984731   3.452483   2.155232   1.085653   2.142852
    25  H    6.226340   3.927136   3.380605   2.142684   1.085414
    26  H    5.900692   3.428613   3.823180   3.345594   2.106878
    27  H    6.349409   4.181178   5.104410   5.051853   4.005258
    28  H    7.583251   5.905390   7.084423   7.286351   6.358655
    29  H    7.093980   6.192877   7.568586   8.187301   7.608842
    30  H    5.104819   4.936913   6.335395   7.291858   7.116139
                   11         12         13         14         15
    11  C    0.000000
    12  C    1.424061   0.000000
    13  C    2.508429   1.433154   0.000000
    14  C    2.970346   2.505341   1.423804   0.000000
    15  C    4.361981   3.792403   2.479146   1.394470   0.000000
    16  C    5.180097   4.276528   2.845898   2.390293   1.376760
    17  C    4.937513   3.750397   2.432661   2.738128   2.389924
    18  C    3.792239   2.470696   1.420893   2.432030   2.845820
    19  H    7.073523   5.898455   6.192582   7.577297   8.203606
    20  H    7.585188   6.198917   5.907084   7.087267   7.293611
    21  H    6.368235   4.952314   4.184146   5.101088   5.047569
    22  H    5.067904   4.160117   4.931799   6.342461   7.305044
    23  H    3.823391   3.428417   4.642025   5.910340   7.111230
    24  H    3.382745   3.930531   5.358240   6.239697   7.605117
    25  H    2.155807   3.454271   4.660652   4.992163   6.357799
    26  H    1.085762   2.193045   2.778017   2.680026   4.005919
    27  H    2.677165   2.772212   2.192626   1.086012   2.105601
    28  H    4.991817   4.659488   3.455436   2.156314   1.086209
    29  H    6.243447   5.361835   3.932000   3.382500   2.143585
    30  H    5.916706   4.649288   3.430327   3.822134   3.344760
                   16         17         18         19         20
    16  C    0.000000
    17  C    1.393617   0.000000
    18  C    2.478662   1.424170   0.000000
    19  H    7.622106   6.251366   5.365368   0.000000
    20  H    6.365986   4.998934   4.663934   2.480581   0.000000
    21  H    4.001893   2.679084   2.775783   4.241361   2.412150
    22  H    7.123993   5.918214   4.647671   2.416308   4.243550
    23  H    7.287567   6.328312   4.924534   4.420419   6.027071
    24  H    8.184054   7.563332   6.185491   6.821269   8.328009
    25  H    7.286194   7.083636   5.905237   8.320229   9.286920
    26  H    5.054335   5.108446   4.188218   8.040547   8.359478
    27  H    3.344667   3.822580   3.431200   8.344152   8.054733
    28  H    2.143796   3.382073   3.931834   9.287329   8.339412
    29  H    1.086502   2.155997   3.455498   8.348423   6.836408
    30  H    2.105782   1.085560   2.191393   6.063587   4.434425
                   21         22         23         24         25
    21  H    0.000000
    22  H    4.906460   0.000000
    23  H    6.122586   2.047786   0.000000
    24  H    8.047757   4.416558   2.416499   0.000000
    25  H    8.362796   6.016701   4.242835   2.480015   0.000000
    26  H    6.910506   6.114571   4.906502   4.240803   2.411611
    27  H    6.152503   6.873083   6.153429   6.054875   4.426280
    28  H    6.051102   8.346392   8.046174   8.327939   6.824666
    29  H    4.424722   8.060372   8.325166   9.263338   8.329944
    30  H    2.024390   6.156065   6.853176   8.325659   8.049028
                   26         27         28         29         30
    26  H    0.000000
    27  H    2.018550   0.000000
    28  H    4.426063   2.411291   0.000000
    29  H    6.058253   4.240590   2.480670   0.000000
    30  H    6.159423   4.905415   4.241088   2.412653   0.000000
 This structure is nearly, but not quite of a higher symmetry.
 Consider Symm=Loose if the higher symmetry is desired.
 Stoichiometry    C18H12
 Framework group  C1[X(C18H12)]
 Deg. of freedom    84
 Full point group                 C1      NOp   1
 Largest Abelian subgroup         C1      NOp   1
 Largest concise Abelian subgroup C1      NOp   1
                         Standard orientation:                         
 ---------------------------------------------------------------------
 Center     Atomic      Atomic             Coordinates (Angstroms)
 Number     Number       Type             X           Y           Z
 ---------------------------------------------------------------------
      1          6           0       -3.482774   -1.449734   -0.170309
      2          6           0       -2.739104   -2.601294   -0.073347
      3          6           0       -1.349725   -2.511575    0.018003
      4          6           0       -0.648561   -1.271958    0.020249
      5          6           0       -1.422161   -0.082513   -0.024627
      6          6           0       -2.834383   -0.215128   -0.139816
      7          6           0       -0.774321    1.193264    0.025101
      8          6           0       -1.497333    2.408766    0.181864
      9          6           0       -0.886386    3.661271    0.192431
     10          6           0        0.475650    3.745514    0.013768
     11          6           0        1.220731    2.572576   -0.113692
     12          6           0        0.640155    1.273214   -0.063279
     13          6           0        1.423064    0.072805   -0.064438
     14          6           0        2.845159    0.085847   -0.132921
     15          6           0        3.624866   -1.066254   -0.036668
     16          6           0        3.005887   -2.283759    0.136579
     17          6           0        1.613811   -2.341195    0.168066
     18          6           0        0.782985   -1.190920    0.046173
     19          1           0       -4.564005   -1.494966   -0.276989
     20          1           0       -3.223885   -3.573958   -0.089501
     21          1           0       -0.819245   -3.457550    0.060918
     22          1           0       -3.470247    0.659437   -0.248856
     23          1           0       -2.571617    2.402178    0.341692
     24          1           0       -1.480255    4.558190    0.339049
     25          1           0        0.971050    4.711102   -0.004755
     26          1           0        2.291583    2.706154   -0.233326
     27          1           0        3.393622    1.015132   -0.255563
     28          1           0        4.708028   -0.998981   -0.082330
     29          1           0        3.593717   -3.191323    0.242740
     30          1           0        1.185880   -3.328975    0.308094
 ---------------------------------------------------------------------
 Rotational constants (GHZ):           0.5120855           0.5108171           0.2565403
 Standard basis: def2SVPP (5D, 7F)
 There are   294 symmetry adapted cartesian basis functions of A   symmetry.
 There are   276 symmetry adapted basis functions of A   symmetry.
   276 basis functions,   498 primitive gaussians,   294 cartesian basis functions
    60 alpha electrons       60 beta electrons
       nuclear repulsion energy      1156.6500021506 Hartrees.
 NAtoms=   30 NActive=   30 NUniq=   30 SFac= 1.00D+00 NAtFMM=   60 NAOKFM=F Big=F
 Integral buffers will be    131072 words long.
 Raffenetti 2 integral format.
 Two-electron integral symmetry is turned on.
 Nuclear repulsion after empirical dispersion term =     1156.5754065612 Hartrees.
 One-electron integrals computed using PRISM.
   1 Symmetry operations used in ECPInt.
 ECPInt:  NShTT=    8778 NPrTT=   35250 LenC2=    8412 LenP2D=   23761.
 LDataN:  DoStor=T MaxTD1= 4 Len=   56
 NBasis=   276 RedAO= T EigKep=  1.66D-04  NBF=   276
 NBsUse=   276 1.00D-06 EigRej= -1.00D+00 NBFU=   276
 ExpMin= 1.22D-01 ExpMax= 1.24D+03 ExpMxC= 1.86D+02 IAcc=3 IRadAn=         5 AccDes= 0.00D+00
 Harris functional with IExCor=  402 and IRadAn=       5 diagonalized for initial guess.
 HarFok:  IExCor=  402 AccDes= 0.00D+00 IRadAn=         5 IDoV= 1 UseB2=F ITyADJ=14
 ICtDFT=  3500011 ScaDFX=  1.000000  1.000000  1.000000  1.000000
 FoFCou: FMM=F IPFlag=           0 FMFlag=      100000 FMFlg1=           0
         NFxFlg=           0 DoJE=T BraDBF=F KetDBF=T FulRan=T
         wScrn=  0.000000 ICntrl=       500 IOpCl=  0 I1Cent=   200000004 NGrid=           0
         NMat0=    1 NMatS0=      1 NMatT0=    0 NMatD0=    1 NMtDS0=    0 NMtDT0=    0
 Petite list used in FoFCou.
 Requested convergence on RMS density matrix=1.00D-08 within 128 cycles.
 Requested convergence on MAX density matrix=1.00D-06.
 Requested convergence on             energy=1.00D-06.
 No special actions if energy rises.
 Integral accuracy reduced to 1.0D-05 until final iterations.
 Initial convergence to 1.0D-05 achieved.  Increase integral accuracy.
 SCF Done:  E(RB3LYP) =  -692.727802278     A.U. after   14 cycles
            NFock= 14  Conv=0.40D-08     -V/T= 2.0107

 **********************************************************************

            Population analysis using the SCF Density.

 **********************************************************************

 Orbital symmetries:
       Occupied  (A) (A) (A) (A) (A) (A) (A) (A) (A) (A) (A) (A)
                 (A) (A) (A) (A) (A) (A) (A) (A) (A) (A) (A) (A)
                 (A) (A) (A) (A) (A) (A) (A) (A) (A) (A) (A) (A)
                 (A) (A) (A) (A) (A) (A) (A) (A) (A) (A) (A) (A)
                 (A) (A) (A) (A) (A) (A) (A) (A) (A) (A) (A) (A)
       Virtual   (A) (A) (A) (A) (A) (A) (A) (A) (A) (A) (A) (A)
                 (A) (A) (A) (A) (A) (A) (A) (A) (A) (A) (A) (A)
                 (A) (A) (A) (A) (A) (A) (A) (A) (A) (A) (A) (A)
                 (A) (A) (A) (A) (A) (A) (A) (A) (A) (A) (A) (A)
                 (A) (A) (A) (A) (A) (A) (A) (A) (A) (A) (A) (A)
                 (A) (A) (A) (A) (A) (A) (A) (A) (A) (A) (A) (A)
                 (A) (A) (A) (A) (A) (A) (A) (A) (A) (A) (A) (A)
                 (A) (A) (A) (A) (A) (A) (A) (A) (A) (A) (A) (A)
                 (A) (A) (A) (A) (A) (A) (A) (A) (A) (A) (A) (A)
                 (A) (A) (A) (A) (A) (A) (A) (A) (A) (A) (A) (A)
                 (A) (A) (A) (A) (A) (A) (A) (A) (A) (A) (A) (A)
                 (A) (A) (A) (A) (A) (A) (A) (A) (A) (A) (A) (A)
                 (A) (A) (A) (A) (A) (A) (A) (A) (A) (A) (A) (A)
                 (A) (A) (A) (A) (A) (A) (A) (A) (A) (A) (A) (A)
                 (A) (A) (A) (A) (A) (A) (A) (A) (A) (A) (A) (A)
                 (A) (A) (A) (A) (A) (A) (A) (A) (A) (A) (A) (A)
                 (A) (A) (A) (A) (A) (A) (A) (A) (A) (A) (A) (A)
                 (A) (A) (A) (A) (A) (A) (A) (A) (A) (A) (A) (A)
 The electronic state is 1-A.
 Alpha  occ. eigenvalues --  -10.20171 -10.20155 -10.20132 -10.20128 -10.20079
 Alpha  occ. eigenvalues --  -10.20059 -10.19049 -10.19041 -10.19029 -10.19016
 Alpha  occ. eigenvalues --  -10.19006 -10.18984 -10.18781 -10.18774 -10.18769
 Alpha  occ. eigenvalues --  -10.18734 -10.18726 -10.18717  -0.88662  -0.84509
 Alpha  occ. eigenvalues --   -0.84503  -0.79300  -0.76873  -0.76852  -0.72040
 Alpha  occ. eigenvalues --   -0.71651  -0.71645  -0.64289  -0.62621  -0.62600
 Alpha  occ. eigenvalues --   -0.58488  -0.58472  -0.54798  -0.54647  -0.50123
 Alpha  occ. eigenvalues --   -0.50107  -0.49307  -0.46815  -0.46790  -0.43394
 Alpha  occ. eigenvalues --   -0.43299  -0.43126  -0.42572  -0.42500  -0.41697
 Alpha  occ. eigenvalues --   -0.41477  -0.37926  -0.36782  -0.36703  -0.36577
 Alpha  occ. eigenvalues --   -0.36526  -0.36467  -0.33007  -0.32951  -0.30362
 Alpha  occ. eigenvalues --   -0.28703  -0.28639  -0.23852  -0.22303  -0.22264
 Alpha virt. eigenvalues --   -0.04698  -0.04604  -0.03971   0.02235   0.02328
 Alpha virt. eigenvalues --    0.04697   0.06010   0.06639   0.06741   0.09468
 Alpha virt. eigenvalues --    0.09536   0.11528   0.12218   0.13701   0.13768
 Alpha virt. eigenvalues --    0.13926   0.14044   0.19043   0.19300   0.21459
 Alpha virt. eigenvalues --    0.22750   0.23564   0.23937   0.24593   0.26587
 Alpha virt. eigenvalues --    0.26894   0.27863   0.28686   0.28725   0.30014
 Alpha virt. eigenvalues --    0.31106   0.31371   0.31936   0.34864   0.34932
 Alpha virt. eigenvalues --    0.35721   0.35884   0.36542   0.39035   0.39647
 Alpha virt. eigenvalues --    0.40122   0.41246   0.42450   0.43087   0.43195
 Alpha virt. eigenvalues --    0.44313   0.44884   0.45820   0.47221   0.47414
 Alpha virt. eigenvalues --    0.48053   0.48310   0.48534   0.48596   0.49516
 Alpha virt. eigenvalues --    0.50568   0.51034   0.51431   0.51593   0.51848
 Alpha virt. eigenvalues --    0.53693   0.54613   0.55714   0.56044   0.57356
 Alpha virt. eigenvalues --    0.58246   0.58314   0.63712   0.63768   0.63969
 Alpha virt. eigenvalues --    0.64713   0.64747   0.66626   0.66945   0.67106
 Alpha virt. eigenvalues --    0.67591   0.67771   0.68558   0.68949   0.69263
 Alpha virt. eigenvalues --    0.70178   0.71399   0.71574   0.72288   0.73087
 Alpha virt. eigenvalues --    0.73483   0.74098   0.75108   0.75450   0.76448
 Alpha virt. eigenvalues --    0.76834   0.77487   0.80645   0.81472   0.81638
 Alpha virt. eigenvalues --    0.82237   0.82614   0.82933   0.85956   0.86159
 Alpha virt. eigenvalues --    0.86858   0.88185   0.92818   0.93930   0.94977
 Alpha virt. eigenvalues --    1.01098   1.01565   1.02237   1.06975   1.11511
 Alpha virt. eigenvalues --    1.12040   1.16009   1.16163   1.16984   1.19641
 Alpha virt. eigenvalues --    1.22497   1.25062   1.26058   1.26774   1.29320
 Alpha virt. eigenvalues --    1.29759   1.30541   1.31731   1.33622   1.34089
 Alpha virt. eigenvalues --    1.39604   1.40332   1.42674   1.43845   1.45044
 Alpha virt. eigenvalues --    1.45288   1.46616   1.48664   1.48992   1.49439
 Alpha virt. eigenvalues --    1.50164   1.50450   1.52118   1.53089   1.53405
 Alpha virt. eigenvalues --    1.65817   1.67902   1.68376   1.72010   1.74175
 Alpha virt. eigenvalues --    1.75199   1.75496   1.79042   1.79225   1.79505
 Alpha virt. eigenvalues --    1.79779   1.81014   1.84367   1.84661   1.85449
 Alpha virt. eigenvalues --    1.85610   1.91499   1.92890   1.93390   1.93990
 Alpha virt. eigenvalues --    2.02458   2.02833   2.04245   2.05103   2.05313
 Alpha virt. eigenvalues --    2.05509   2.08400   2.08418   2.11231   2.11274
 Alpha virt. eigenvalues --    2.15173   2.18849   2.19395   2.20179   2.20286
 Alpha virt. eigenvalues --    2.20522   2.22384   2.22974   2.23164   2.27708
 Alpha virt. eigenvalues --    2.30446   2.30682   2.33843   2.36411   2.37757
 Alpha virt. eigenvalues --    2.37952   2.39028   2.39353   2.49036   2.49288
 Alpha virt. eigenvalues --    2.51757   2.55635   2.56079   2.59257   2.59579
 Alpha virt. eigenvalues --    2.60798   2.61631   2.63189   2.64982   2.65083
 Alpha virt. eigenvalues --    2.66157   2.69936   2.70019   2.71342   2.78428
 Alpha virt. eigenvalues --    2.78623   2.83889   2.84064   2.84449   2.96155
 Alpha virt. eigenvalues --    3.04657   3.04926   3.29778   3.30032   3.42844
 Alpha virt. eigenvalues --    3.54221
          Condensed to atoms (all electrons):
               1          2          3          4          5          6
     1  C    5.229571   0.153426   0.155154  -0.180695   0.141819   0.219389
     2  C    0.153426   5.231276   0.219701   0.141142  -0.181975   0.154844
     3  C    0.155154   0.219701   5.450452   0.243316   0.041254  -0.180630
     4  C   -0.180695   0.141142   0.243316   5.651148   0.128644   0.042883
     5  C    0.141819  -0.181975   0.041254   0.128644   5.654276   0.245383
     6  C    0.219389   0.154844  -0.180630   0.042883   0.245383   5.447872
     7  C    0.027830  -0.005912   0.027419  -0.038022   0.227389  -0.152037
     8  C    0.000722   0.000040  -0.000426   0.018584  -0.151097  -0.025695
     9  C   -0.000130   0.000010  -0.000003   0.000662   0.027747   0.000751
    10  C    0.000010  -0.000001   0.000001  -0.000391  -0.005820   0.000034
    11  C   -0.000003   0.000001   0.000072  -0.001513   0.027093  -0.000435
    12  C    0.000686  -0.000399  -0.001454  -0.130742  -0.036365   0.018161
    13  C   -0.000407   0.000764   0.018448  -0.040402  -0.131764  -0.001416
    14  C    0.000001  -0.000003  -0.000423   0.027226  -0.001600   0.000071
    15  C   -0.000001   0.000010   0.000040  -0.006008  -0.000404   0.000001
    16  C    0.000010  -0.000136   0.000661   0.028301   0.000715  -0.000003
    17  C    0.000045   0.000597  -0.025202  -0.149327   0.019493  -0.000423
    18  C   -0.006091   0.028368  -0.151268   0.220552  -0.042435   0.027844
    19  H    0.436868  -0.087981   0.015683  -0.001353   0.015677  -0.075658
    20  H   -0.088198   0.437180  -0.075782   0.015755  -0.001434   0.015774
    21  H    0.017471  -0.085754   0.421627  -0.045802   0.021211  -0.002417
    22  H   -0.084156   0.017290  -0.002396   0.020847  -0.047660   0.421040
    23  H    0.001816  -0.000121   0.000059  -0.001854  -0.045434   0.011241
    24  H   -0.000001   0.000000  -0.000000   0.000006  -0.000321   0.000004
    25  H   -0.000000   0.000000   0.000000   0.000000   0.000040  -0.000000
    26  H   -0.000000   0.000000  -0.000000  -0.000039  -0.000074   0.000006
    27  H    0.000000  -0.000000   0.000006  -0.000071  -0.000041  -0.000000
    28  H    0.000000  -0.000000  -0.000000   0.000041  -0.000000   0.000000
    29  H    0.000000  -0.000001   0.000004  -0.000301   0.000007  -0.000000
    30  H   -0.000115   0.001880   0.010837  -0.047214  -0.001888   0.000065
               7          8          9         10         11         12
     1  C    0.027830   0.000722  -0.000130   0.000010  -0.000003   0.000686
     2  C   -0.005912   0.000040   0.000010  -0.000001   0.000001  -0.000399
     3  C    0.027419  -0.000426  -0.000003   0.000001   0.000072  -0.001454
     4  C   -0.038022   0.018584   0.000662  -0.000391  -0.001513  -0.130742
     5  C    0.227389  -0.151097   0.027747  -0.005820   0.027093  -0.036365
     6  C   -0.152037  -0.025695   0.000751   0.000034  -0.000435   0.018161
     7  C    5.653598   0.246095   0.140318  -0.180670   0.038082   0.135247
     8  C    0.246095   5.445853   0.220986   0.153798  -0.179449   0.040110
     9  C    0.140318   0.220986   5.225140   0.156607   0.153328  -0.179024
    10  C   -0.180670   0.153798   0.156607   5.226301   0.223486   0.138640
    11  C    0.038082  -0.179449   0.153328   0.223486   5.447801   0.245421
    12  C    0.135247   0.040110  -0.179024   0.138640   0.245421   5.646811
    13  C   -0.042502   0.027883  -0.006136   0.028363  -0.150085   0.219878
    14  C    0.019547  -0.000423   0.000043   0.000602  -0.025411  -0.149321
    15  C    0.000735  -0.000004   0.000011  -0.000139   0.000650   0.028455
    16  C   -0.000409   0.000001  -0.000001   0.000011   0.000042  -0.006106
    17  C   -0.001634   0.000070   0.000001  -0.000004  -0.000413   0.027521
    18  C   -0.131402  -0.001519  -0.000404   0.000761   0.018896  -0.042415
    19  H   -0.000325   0.000003  -0.000001   0.000000  -0.000000   0.000006
    20  H    0.000042  -0.000000  -0.000000   0.000000   0.000000   0.000000
    21  H   -0.000079   0.000006  -0.000000   0.000000  -0.000000  -0.000037
    22  H   -0.045433   0.011507   0.001824  -0.000123   0.000056  -0.001838
    23  H   -0.047286   0.421020  -0.084022   0.017187  -0.002344   0.020778
    24  H    0.015754  -0.076004   0.437086  -0.087898   0.015717  -0.001377
    25  H   -0.001448   0.015787  -0.088044   0.437064  -0.075701   0.015802
    26  H    0.021079  -0.002361   0.017342  -0.085350   0.420852  -0.044667
    27  H   -0.001870   0.000063  -0.000115   0.001898   0.011008  -0.047636
    28  H    0.000007  -0.000000   0.000000  -0.000001   0.000003  -0.000294
    29  H   -0.000000   0.000000   0.000000  -0.000000  -0.000000   0.000042
    30  H   -0.000039  -0.000000   0.000000  -0.000000   0.000006  -0.000070
              13         14         15         16         17         18
     1  C   -0.000407   0.000001  -0.000001   0.000010   0.000045  -0.006091
     2  C    0.000764  -0.000003   0.000010  -0.000136   0.000597   0.028368
     3  C    0.018448  -0.000423   0.000040   0.000661  -0.025202  -0.151268
     4  C   -0.040402   0.027226  -0.006008   0.028301  -0.149327   0.220552
     5  C   -0.131764  -0.001600  -0.000404   0.000715   0.019493  -0.042435
     6  C   -0.001416   0.000071   0.000001  -0.000003  -0.000423   0.027844
     7  C   -0.042502   0.019547   0.000735  -0.000409  -0.001634  -0.131402
     8  C    0.027883  -0.000423  -0.000004   0.000001   0.000070  -0.001519
     9  C   -0.006136   0.000043   0.000011  -0.000001   0.000001  -0.000404
    10  C    0.028363   0.000602  -0.000139   0.000011  -0.000004   0.000761
    11  C   -0.150085  -0.025411   0.000650   0.000042  -0.000413   0.018896
    12  C    0.219878  -0.149321   0.028455  -0.006106   0.027521  -0.042415
    13  C    5.657826   0.242057   0.141090  -0.181790   0.038172   0.134890
    14  C    0.242057   5.450442   0.221217   0.154891  -0.179845   0.037816
    15  C    0.141090   0.221217   5.229609   0.153448   0.154985  -0.181858
    16  C   -0.181790   0.154891   0.153448   5.230018   0.220189   0.141575
    17  C    0.038172  -0.179845   0.154985   0.220189   5.448821   0.242312
    18  C    0.134890   0.037816  -0.181858   0.141575   0.242312   5.661720
    19  H    0.000000   0.000000   0.000000  -0.000000  -0.000000   0.000044
    20  H    0.000006  -0.000000   0.000000  -0.000001   0.000003  -0.000295
    21  H   -0.001889   0.000059  -0.000116   0.001875   0.011439  -0.047333
    22  H   -0.000032   0.000000   0.000000  -0.000000   0.000006  -0.000086
    23  H   -0.000074   0.000006  -0.000000   0.000000   0.000000  -0.000034
    24  H    0.000042  -0.000000  -0.000000   0.000000   0.000000   0.000000
    25  H   -0.000285   0.000003  -0.000001   0.000000  -0.000000   0.000007
    26  H   -0.047583   0.011192   0.001893  -0.000115   0.000061  -0.001902
    27  H   -0.044848   0.421260  -0.085665   0.017435  -0.002392   0.021116
    28  H    0.015785  -0.075803   0.437050  -0.088015   0.015783  -0.001430
    29  H   -0.001416   0.015769  -0.087953   0.436977  -0.075868   0.015750
    30  H    0.021138  -0.002394   0.017406  -0.085708   0.421346  -0.045042
              19         20         21         22         23         24
     1  C    0.436868  -0.088198   0.017471  -0.084156   0.001816  -0.000001
     2  C   -0.087981   0.437180  -0.085754   0.017290  -0.000121   0.000000
     3  C    0.015683  -0.075782   0.421627  -0.002396   0.000059  -0.000000
     4  C   -0.001353   0.015755  -0.045802   0.020847  -0.001854   0.000006
     5  C    0.015677  -0.001434   0.021211  -0.047660  -0.045434  -0.000321
     6  C   -0.075658   0.015774  -0.002417   0.421040   0.011241   0.000004
     7  C   -0.000325   0.000042  -0.000079  -0.045433  -0.047286   0.015754
     8  C    0.000003  -0.000000   0.000006   0.011507   0.421020  -0.076004
     9  C   -0.000001  -0.000000  -0.000000   0.001824  -0.084022   0.437086
    10  C    0.000000   0.000000   0.000000  -0.000123   0.017187  -0.087898
    11  C   -0.000000   0.000000  -0.000000   0.000056  -0.002344   0.015717
    12  C    0.000006   0.000000  -0.000037  -0.001838   0.020778  -0.001377
    13  C    0.000000   0.000006  -0.001889  -0.000032  -0.000074   0.000042
    14  C    0.000000  -0.000000   0.000059   0.000000   0.000006  -0.000000
    15  C    0.000000   0.000000  -0.000116   0.000000  -0.000000  -0.000000
    16  C   -0.000000  -0.000001   0.001875  -0.000000   0.000000   0.000000
    17  C   -0.000000   0.000003   0.011439   0.000006   0.000000   0.000000
    18  C    0.000044  -0.000295  -0.047333  -0.000086  -0.000034   0.000000
    19  H    0.674509  -0.012254  -0.000401  -0.013725   0.000039  -0.000000
    20  H   -0.012254   0.674939  -0.013952  -0.000395  -0.000000  -0.000000
    21  H   -0.000401  -0.013952   0.685773   0.000013   0.000001   0.000000
    22  H   -0.013725  -0.000395   0.000013   0.682448  -0.001463   0.000040
    23  H    0.000039  -0.000000   0.000001  -0.001463   0.682401  -0.013769
    24  H   -0.000000  -0.000000   0.000000   0.000040  -0.013769   0.675090
    25  H   -0.000000  -0.000000  -0.000000  -0.000000  -0.000395  -0.012227
    26  H    0.000000  -0.000000  -0.000000   0.000001   0.000013  -0.000400
    27  H   -0.000000   0.000000   0.000001  -0.000000   0.000001  -0.000000
    28  H   -0.000000  -0.000000  -0.000000  -0.000000   0.000000  -0.000000
    29  H   -0.000000  -0.000000   0.000040   0.000000  -0.000000  -0.000000
    30  H   -0.000000   0.000039  -0.001785   0.000001  -0.000000  -0.000000
              25         26         27         28         29         30
     1  C   -0.000000  -0.000000   0.000000   0.000000   0.000000  -0.000115
     2  C    0.000000   0.000000  -0.000000  -0.000000  -0.000001   0.001880
     3  C    0.000000  -0.000000   0.000006  -0.000000   0.000004   0.010837
     4  C    0.000000  -0.000039  -0.000071   0.000041  -0.000301  -0.047214
     5  C    0.000040  -0.000074  -0.000041  -0.000000   0.000007  -0.001888
     6  C   -0.000000   0.000006  -0.000000   0.000000  -0.000000   0.000065
     7  C   -0.001448   0.021079  -0.001870   0.000007  -0.000000  -0.000039
     8  C    0.015787  -0.002361   0.000063  -0.000000   0.000000  -0.000000
     9  C   -0.088044   0.017342  -0.000115   0.000000   0.000000   0.000000
    10  C    0.437064  -0.085350   0.001898  -0.000001  -0.000000  -0.000000
    11  C   -0.075701   0.420852   0.011008   0.000003  -0.000000   0.000006
    12  C    0.015802  -0.044667  -0.047636  -0.000294   0.000042  -0.000070
    13  C   -0.000285  -0.047583  -0.044848   0.015785  -0.001416   0.021138
    14  C    0.000003   0.011192   0.421260  -0.075803   0.015769  -0.002394
    15  C   -0.000001   0.001893  -0.085665   0.437050  -0.087953   0.017406
    16  C    0.000000  -0.000115   0.017435  -0.088015   0.436977  -0.085708
    17  C   -0.000000   0.000061  -0.002392   0.015783  -0.075868   0.421346
    18  C    0.000007  -0.001902   0.021116  -0.001430   0.015750  -0.045042
    19  H   -0.000000   0.000000  -0.000000  -0.000000  -0.000000  -0.000000
    20  H   -0.000000  -0.000000   0.000000  -0.000000  -0.000000   0.000039
    21  H   -0.000000  -0.000000   0.000001  -0.000000   0.000040  -0.001785
    22  H   -0.000000   0.000001  -0.000000  -0.000000   0.000000   0.000001
    23  H   -0.000395   0.000013   0.000001   0.000000  -0.000000  -0.000000
    24  H   -0.012227  -0.000400  -0.000000  -0.000000  -0.000000  -0.000000
    25  H    0.675214  -0.013997   0.000041  -0.000000  -0.000000   0.000000
    26  H   -0.013997   0.685355  -0.001862   0.000041  -0.000000   0.000001
    27  H    0.000041  -0.001862   0.685598  -0.013990  -0.000402   0.000012
    28  H   -0.000000   0.000041  -0.013990   0.675105  -0.012163  -0.000400
    29  H   -0.000000  -0.000000  -0.000402  -0.012163   0.675108  -0.013947
    30  H    0.000000   0.000001   0.000012  -0.000400  -0.013947   0.685166
 Mulliken charges:
               1
     1  C   -0.025020
     2  C   -0.024246
     3  C   -0.167150
     4  C    0.104629
     5  C    0.097567
     6  C   -0.166645
     7  C    0.095926
     8  C   -0.165549
     9  C   -0.023975
    10  C   -0.024366
    11  C   -0.167159
    12  C    0.104192
    13  C    0.104286
    14  C   -0.166977
    15  C   -0.024452
    16  C   -0.023861
    17  C   -0.165737
    18  C    0.101863
    19  H    0.048869
    20  H    0.048574
    21  H    0.040050
    22  H    0.042234
    23  H    0.042231
    24  H    0.048259
    25  H    0.048142
    26  H    0.040515
    27  H    0.040455
    28  H    0.048283
    29  H    0.048356
    30  H    0.040706
 Sum of Mulliken charges =  -0.00000
 Mulliken charges with hydrogens summed into heavy atoms:
               1
     1  C    0.023849
     2  C    0.024329
     3  C   -0.127099
     4  C    0.104629
     5  C    0.097567
     6  C   -0.124411
     7  C    0.095926
     8  C   -0.123318
     9  C    0.024284
    10  C    0.023776
    11  C   -0.126645
    12  C    0.104192
    13  C    0.104286
    14  C   -0.126522
    15  C    0.023831
    16  C    0.024495
    17  C   -0.125031
    18  C    0.101863
 Electronic spatial extent (au):  <R**2>=           4120.4012
 Charge=             -0.0000 electrons
 Dipole moment (field-independent basis, Debye):
    X=              0.0214    Y=             -0.0020    Z=              0.0334  Tot=              0.0397
 Quadrupole moment (field-independent basis, Debye-Ang):
   XX=            -90.9646   YY=            -90.9514   ZZ=           -110.7403
   XY=              0.0587   XZ=             -0.1367   YZ=             -0.2384
 Traceless Quadrupole moment (field-independent basis, Debye-Ang):
   XX=              6.5875   YY=              6.6007   ZZ=            -13.1882
   XY=              0.0587   XZ=             -0.1367   YZ=             -0.2384
 Octapole moment (field-independent basis, Debye-Ang**2):
  XXX=              1.0957  YYY=              2.5096  ZZZ=              0.0726  XYY=             -0.2393
  XXY=             -2.7953  XXZ=             -3.2102  XZZ=             -0.1630  YZZ=              0.1897
  YYZ=              4.3694  XYZ=             -4.4885
 Hexadecapole moment (field-independent basis, Debye-Ang**3):
 XXXX=          -2571.0701 YYYY=          -2564.9460 ZZZZ=           -132.7655 XXXY=             -0.0675
 XXXZ=             -4.8387 YYYX=              2.3945 YYYZ=             -4.9979 ZZZX=            -12.4149
 ZZZY=             -8.9051 XXYY=           -856.6885 XXZZ=           -539.4941 YYZZ=           -538.2575
 XXYZ=             -2.7612 YYXZ=             -5.7462 ZZXY=             -0.7005
 N-N= 1.156575406561D+03 E-N=-3.915516556415D+03  KE= 6.853806838653D+02
   1 Symmetry operations used in ECPInt.
 ECPInt:  NShTT=    8778 NPrTT=   35250 LenC2=    8412 LenP2D=   23761.
 LDataN:  DoStor=T MaxTD1= 5 Len=  102
 Calling FoFJK, ICntrl=      2127 FMM=F ISym2X=0 I1Cent= 0 IOpClX= 0 NMat=1 NMatS=1 NMatT=0.
 ***** Axes restored to original set *****
 -------------------------------------------------------------------
 Center     Atomic                   Forces (Hartrees/Bohr)
 Number     Number              X              Y              Z
 -------------------------------------------------------------------
      1        6          -0.018707048    0.016932255    0.000520765
      2        6          -0.004321097   -0.024396368   -0.001730890
      3        6           0.001934622    0.002438327    0.001403078
      4        6           0.025048942    0.011043196   -0.001996423
      5        6           0.026785488    0.006529699    0.000967217
      6        6           0.003232485    0.000007511    0.000571355
      7        6          -0.022444466    0.015493862   -0.002528083
      8        6          -0.002716736    0.001087762   -0.000509350
      9        6           0.021615172    0.006571065   -0.001215778
     10        6          -0.002439148   -0.023542408    0.003251036
     11        6          -0.001630452    0.003171916   -0.001986328
     12        6          -0.019140529    0.020171715    0.003122370
     13        6          -0.002079897   -0.027591551    0.002504182
     14        6           0.000319799   -0.003358302   -0.000701610
     15        6          -0.016173614    0.015991414    0.002551283
     16        6           0.020604608    0.008083659   -0.001849693
     17        6          -0.001535826   -0.001825336   -0.000066907
     18        6          -0.007538435   -0.026188826   -0.002323008
     19        1           0.001810619    0.004363280    0.000203295
     20        1           0.004453195   -0.002655164   -0.000338608
     21        1          -0.002912756   -0.005913245   -0.000199676
     22        1          -0.005418798    0.002073228   -0.000840553
     23        1           0.006180843    0.000383849    0.000751219
     24        1          -0.000309370    0.005947328   -0.000557869
     25        1          -0.006065322   -0.000531816    0.000768099
     26        1           0.000692501   -0.006405272   -0.000136441
     27        1          -0.003248958    0.005521480   -0.000037242
     28        1          -0.004712065   -0.002901224    0.000709391
     29        1           0.003335147   -0.004237368   -0.000532787
     30        1           0.005381095    0.003735334    0.000227957
 -------------------------------------------------------------------
 Cartesian Forces:  Max     0.027591551 RMS     0.009667945

 GradGradGradGradGradGradGradGradGradGradGradGradGradGradGradGradGradGrad
 Berny optimization.
 FormGI is forming the generalized inverse of G from B-inverse, IUseBI=4.
 Internal  Forces:  Max     0.027898604 RMS     0.005659891
 Search for a local minimum.
 Step number   1 out of a maximum of  180
 All quantities printed in internal units (Hartrees-Bohrs-Radians)
 Mixed Optimization -- RFO/linear search
 Second derivative matrix not updated -- first step.
 ITU=  0
     Eigenvalues ---    0.01703   0.01713   0.01753   0.01756   0.01757
     Eigenvalues ---    0.01773   0.01784   0.01803   0.01814   0.01947
     Eigenvalues ---    0.01952   0.01955   0.01959   0.01962   0.01968
     Eigenvalues ---    0.01973   0.01975   0.01977   0.02238   0.02241
     Eigenvalues ---    0.02246   0.02248   0.02249   0.02254   0.02308
     Eigenvalues ---    0.02311   0.02325   0.15987   0.15988   0.15993
     Eigenvalues ---    0.15994   0.15997   0.15997   0.15998   0.15998
     Eigenvalues ---    0.15999   0.16000   0.16000   0.16000   0.21994
     Eigenvalues ---    0.21997   0.21999   0.22525   0.22540   0.22584
     Eigenvalues ---    0.24417   0.24449   0.24467   0.24862   0.24971
     Eigenvalues ---    0.24995   0.35112   0.35173   0.35188   0.35220
     Eigenvalues ---    0.35254   0.35264   0.35278   0.35307   0.35320
     Eigenvalues ---    0.35331   0.35348   0.35348   0.36741   0.36776
     Eigenvalues ---    0.39278   0.39306   0.39320   0.39884   0.40294
     Eigenvalues ---    0.40390   0.40602   0.41813   0.41868   0.42095
     Eigenvalues ---    0.45065   0.45122   0.45192   0.45838   0.45926
     Eigenvalues ---    0.45973   0.48687   0.48771   0.49102
 RFO step:  Lambda=-1.48474876D-02 EMin= 1.70321773D-02
 Linear search not attempted -- first point.
 Iteration  1 RMS(Cart)=  0.03906403 RMS(Int)=  0.00055676
 Iteration  2 RMS(Cart)=  0.00079111 RMS(Int)=  0.00013753
 Iteration  3 RMS(Cart)=  0.00000029 RMS(Int)=  0.00013753
 Variable       Old X    -DE/DX   Delta X   Delta X   Delta X     New X
                                 (Linear)    (Quad)   (Total)
    R1        2.59694   0.02790   0.00000   0.05520   0.05517   2.65211
    R2        2.63587  -0.00651   0.00000  -0.01291  -0.01292   2.62296
    R3        2.05493   0.00451   0.00000   0.01232   0.01232   2.06725
    R4        2.63667  -0.00678   0.00000  -0.01359  -0.01361   2.62306
    R5        2.05394   0.00488   0.00000   0.01331   0.01331   2.06725
    R6        2.69131  -0.00960   0.00000  -0.02287  -0.02287   2.66844
    R7        2.05113   0.00429   0.00000   0.01166   0.01166   2.06279
    R8        2.68265   0.00808   0.00000   0.01695   0.01699   2.69964
    R9        2.71000   0.01866   0.00000   0.04434   0.04435   2.75436
   R10        2.68928  -0.00869   0.00000  -0.02059  -0.02057   2.66871
   R11        2.70553   0.02025   0.00000   0.04814   0.04813   2.75366
   R12        2.05370   0.00342   0.00000   0.00931   0.00931   2.06302
   R13        2.68897  -0.00839   0.00000  -0.01978  -0.01976   2.66922
   R14        2.68244   0.00797   0.00000   0.01713   0.01712   2.69957
   R15        2.63353  -0.00564   0.00000  -0.01112  -0.01109   2.62244
   R16        2.05249   0.00391   0.00000   0.01064   0.01064   2.06312
   R17        2.60080   0.02626   0.00000   0.05226   0.05227   2.65307
   R18        2.05159   0.00574   0.00000   0.01560   0.01560   2.06719
   R19        2.63695  -0.00702   0.00000  -0.01420  -0.01423   2.62272
   R20        2.05114   0.00589   0.00000   0.01600   0.01600   2.06714
   R21        2.69108  -0.00916   0.00000  -0.02180  -0.02183   2.66925
   R22        2.05179   0.00403   0.00000   0.01095   0.01095   2.06275
   R23        2.70827   0.01954   0.00000   0.04652   0.04651   2.75478
   R24        2.69060  -0.00906   0.00000  -0.02152  -0.02152   2.66908
   R25        2.68510   0.00736   0.00000   0.01530   0.01534   2.70044
   R26        2.63517  -0.00650   0.00000  -0.01294  -0.01296   2.62221
   R27        2.05227   0.00386   0.00000   0.01050   0.01050   2.06276
   R28        2.60170   0.02579   0.00000   0.05153   0.05151   2.65321
   R29        2.05264   0.00531   0.00000   0.01446   0.01446   2.06710
   R30        2.63355  -0.00585   0.00000  -0.01156  -0.01156   2.62199
   R31        2.05319   0.00513   0.00000   0.01399   0.01399   2.06718
   R32        2.69129  -0.00943   0.00000  -0.02240  -0.02238   2.66891
   R33        2.05141   0.00423   0.00000   0.01148   0.01148   2.06289
    A1        2.08128   0.00070   0.00000   0.00782   0.00775   2.08903
    A2        2.10614   0.00109   0.00000   0.00434   0.00438   2.11052
    A3        2.09574  -0.00179   0.00000  -0.01218  -0.01215   2.08359
    A4        2.08243   0.00073   0.00000   0.00782   0.00772   2.09015
    A5        2.10305   0.00146   0.00000   0.00657   0.00661   2.10966
    A6        2.09747  -0.00218   0.00000  -0.01424  -0.01420   2.08326
    A7        2.14876  -0.00594   0.00000  -0.02467  -0.02474   2.12402
    A8        2.01886   0.00811   0.00000   0.04186   0.04187   2.06072
    A9        2.11520  -0.00217   0.00000  -0.01691  -0.01690   2.09830
   A10        2.04986   0.00560   0.00000   0.01860   0.01862   2.06848
   A11        2.14204  -0.00585   0.00000  -0.02009  -0.02009   2.12195
   A12        2.09117   0.00025   0.00000   0.00137   0.00133   2.09250
   A13        2.05472   0.00493   0.00000   0.01593   0.01597   2.07069
   A14        2.09317  -0.00022   0.00000   0.00025   0.00019   2.09336
   A15        2.13517  -0.00471   0.00000  -0.01615  -0.01613   2.11904
   A16        2.14784  -0.00598   0.00000  -0.02441  -0.02447   2.12337
   A17        2.02430   0.00775   0.00000   0.03973   0.03972   2.06401
   A18        2.11035  -0.00176   0.00000  -0.01479  -0.01482   2.09553
   A19        2.13541  -0.00448   0.00000  -0.01585  -0.01580   2.11962
   A20        2.09315  -0.00030   0.00000  -0.00021  -0.00027   2.09288
   A21        2.05450   0.00478   0.00000   0.01624   0.01618   2.07068
   A22        2.14815  -0.00610   0.00000  -0.02445  -0.02458   2.12358
   A23        2.11017  -0.00175   0.00000  -0.01502  -0.01505   2.09512
   A24        2.02411   0.00787   0.00000   0.04018   0.04018   2.06429
   A25        2.08046   0.00082   0.00000   0.00816   0.00806   2.08852
   A26        2.09870  -0.00208   0.00000  -0.01366  -0.01362   2.08508
   A27        2.10402   0.00127   0.00000   0.00551   0.00555   2.10957
   A28        2.08154   0.00095   0.00000   0.00855   0.00840   2.08994
   A29        2.10407   0.00124   0.00000   0.00560   0.00565   2.10972
   A30        2.09730  -0.00218   0.00000  -0.01393  -0.01388   2.08342
   A31        2.14843  -0.00578   0.00000  -0.02374  -0.02394   2.12449
   A32        2.01891   0.00800   0.00000   0.04119   0.04125   2.06017
   A33        2.11560  -0.00221   0.00000  -0.01717  -0.01711   2.09848
   A34        2.04862   0.00547   0.00000   0.01872   0.01864   2.06726
   A35        2.09120   0.00010   0.00000   0.00101   0.00099   2.09219
   A36        2.14303  -0.00557   0.00000  -0.01982  -0.01974   2.12329
   A37        2.13885  -0.00524   0.00000  -0.01788  -0.01786   2.12099
   A38        2.09301   0.00006   0.00000   0.00059   0.00054   2.09355
   A39        2.05085   0.00519   0.00000   0.01735   0.01738   2.06823
   A40        2.15027  -0.00606   0.00000  -0.02511  -0.02518   2.12509
   A41        2.11494  -0.00219   0.00000  -0.01725  -0.01722   2.09772
   A42        2.01792   0.00825   0.00000   0.04240   0.04243   2.06036
   A43        2.08051   0.00096   0.00000   0.00867   0.00857   2.08908
   A44        2.09844  -0.00221   0.00000  -0.01417  -0.01413   2.08431
   A45        2.10411   0.00125   0.00000   0.00561   0.00565   2.10976
   A46        2.08103   0.00080   0.00000   0.00801   0.00793   2.08896
   A47        2.10335   0.00137   0.00000   0.00613   0.00617   2.10952
   A48        2.09879  -0.00217   0.00000  -0.01412  -0.01408   2.08470
   A49        2.15018  -0.00614   0.00000  -0.02536  -0.02542   2.12477
   A50        2.01993   0.00814   0.00000   0.04178   0.04179   2.06171
   A51        2.11297  -0.00200   0.00000  -0.01629  -0.01628   2.09669
   A52        2.09270   0.00018   0.00000   0.00068   0.00064   2.09334
   A53        2.13916  -0.00549   0.00000  -0.01868  -0.01868   2.12048
   A54        2.05128   0.00531   0.00000   0.01795   0.01796   2.06924
    D1       -0.02921   0.00039   0.00000   0.01038   0.01038  -0.01883
    D2        3.13580   0.00013   0.00000   0.00331   0.00323   3.13903
    D3        3.10470   0.00023   0.00000   0.00776   0.00787   3.11257
    D4       -0.01347  -0.00004   0.00000   0.00068   0.00071  -0.01276
    D5        0.01080  -0.00042   0.00000  -0.01076  -0.01070   0.00010
    D6        3.11225  -0.00009   0.00000   0.00397   0.00433   3.11658
    D7       -3.12315  -0.00027   0.00000  -0.00822  -0.00830  -3.13145
    D8       -0.02170   0.00006   0.00000   0.00651   0.00673  -0.01497
    D9        0.00334   0.00010   0.00000   0.00542   0.00544   0.00878
   D10       -3.10975  -0.00028   0.00000  -0.00554  -0.00561  -3.11536
   D11        3.12159   0.00042   0.00000   0.01275   0.01277   3.13436
   D12        0.00850   0.00004   0.00000   0.00179   0.00172   0.01022
   D13        0.04077  -0.00085   0.00000  -0.02141  -0.02128   0.01949
   D14       -3.08485  -0.00071   0.00000  -0.01335  -0.01310  -3.09795
   D15       -3.13085  -0.00029   0.00000  -0.00895  -0.00907  -3.13992
   D16        0.02671  -0.00015   0.00000  -0.00088  -0.00089   0.02582
   D17       -0.05673   0.00047   0.00000   0.01927   0.01953  -0.03720
   D18        3.10146   0.00040   0.00000   0.01724   0.01753   3.11899
   D19        3.06938   0.00027   0.00000   0.01124   0.01129   3.08067
   D20       -0.05562   0.00020   0.00000   0.00921   0.00929  -0.04633
   D21        3.05096   0.00016   0.00000   0.00271   0.00275   3.05370
   D22       -0.08040   0.00030   0.00000   0.00936   0.00934  -0.07106
   D23       -0.07430   0.00026   0.00000   0.01081   0.01088  -0.06342
   D24        3.07753   0.00040   0.00000   0.01746   0.01748   3.09501
   D25        0.03355  -0.00037   0.00000  -0.00564  -0.00544   0.02811
   D26       -3.06598  -0.00093   0.00000  -0.02226  -0.02195  -3.08793
   D27       -3.12506  -0.00026   0.00000  -0.00338  -0.00324  -3.12830
   D28        0.05859  -0.00081   0.00000  -0.02000  -0.01974   0.03885
   D29       -2.97637  -0.00097   0.00000  -0.03613  -0.03616  -3.01253
   D30        0.14856  -0.00052   0.00000  -0.02321  -0.02339   0.12517
   D31        0.18261  -0.00113   0.00000  -0.03858  -0.03854   0.14407
   D32       -2.97565  -0.00068   0.00000  -0.02566  -0.02577  -3.00141
   D33       -3.10730  -0.00024   0.00000   0.00241   0.00270  -3.10460
   D34        0.07756  -0.00091   0.00000  -0.01924  -0.01883   0.05873
   D35        0.05061  -0.00064   0.00000  -0.01009  -0.00977   0.04084
   D36       -3.04772  -0.00131   0.00000  -0.03174  -0.03130  -3.07902
   D37        3.05781   0.00047   0.00000   0.02114   0.02147   3.07928
   D38       -0.11097   0.00039   0.00000   0.01707   0.01720  -0.09377
   D39       -0.09968   0.00081   0.00000   0.03317   0.03359  -0.06609
   D40        3.01472   0.00073   0.00000   0.02910   0.02932   3.04404
   D41        0.02668  -0.00073   0.00000  -0.01762  -0.01752   0.00916
   D42       -3.11597  -0.00041   0.00000  -0.01186  -0.01198  -3.12795
   D43        3.12698  -0.00029   0.00000   0.00186   0.00240   3.12938
   D44       -0.01567   0.00003   0.00000   0.00762   0.00795  -0.00772
   D45       -0.04979   0.00064   0.00000   0.01685   0.01684  -0.03294
   D46        3.11690   0.00026   0.00000   0.00731   0.00721   3.12411
   D47        3.09287   0.00032   0.00000   0.01108   0.01123   3.10409
   D48       -0.02364  -0.00006   0.00000   0.00154   0.00160  -0.02204
   D49       -0.00421   0.00024   0.00000   0.01003   0.01006   0.00585
   D50       -3.12215  -0.00029   0.00000  -0.00326  -0.00329  -3.12545
   D51        3.11239   0.00067   0.00000   0.01981   0.01982   3.13221
   D52       -0.00555   0.00014   0.00000   0.00653   0.00647   0.00092
   D53        0.08074  -0.00148   0.00000  -0.03695  -0.03672   0.04402
   D54       -3.03280  -0.00149   0.00000  -0.03312  -0.03273  -3.06552
   D55       -3.08577  -0.00079   0.00000  -0.02220  -0.02232  -3.10809
   D56        0.08388  -0.00080   0.00000  -0.01837  -0.01833   0.06555
   D57       -3.12681  -0.00016   0.00000   0.00054   0.00065  -3.12616
   D58       -0.01905   0.00011   0.00000   0.00307   0.00307  -0.01598
   D59       -0.01393  -0.00006   0.00000  -0.00312  -0.00313  -0.01706
   D60        3.09383   0.00020   0.00000  -0.00059  -0.00071   3.09312
   D61        3.05702   0.00102   0.00000   0.02227   0.02199   3.07901
   D62       -0.07341   0.00071   0.00000   0.01670   0.01661  -0.05680
   D63       -0.05151   0.00085   0.00000   0.02008   0.01990  -0.03161
   D64        3.10124   0.00054   0.00000   0.01451   0.01452   3.11576
   D65        0.11176  -0.00036   0.00000  -0.01687  -0.01700   0.09476
   D66       -3.03956  -0.00056   0.00000  -0.02340  -0.02361  -3.06317
   D67       -3.06199  -0.00030   0.00000  -0.01512  -0.01531  -3.07730
   D68        0.06988  -0.00050   0.00000  -0.02165  -0.02193   0.04795
   D69       -0.00295   0.00003   0.00000  -0.00162  -0.00166  -0.00461
   D70       -3.12772  -0.00033   0.00000  -0.00962  -0.00961  -3.13733
   D71        3.12806   0.00027   0.00000   0.00334   0.00327   3.13132
   D72        0.00328  -0.00009   0.00000  -0.00466  -0.00468  -0.00139
   D73        0.03610  -0.00047   0.00000  -0.01218  -0.01218   0.02392
   D74       -3.11082  -0.00025   0.00000  -0.00792  -0.00799  -3.11881
   D75       -3.12237  -0.00014   0.00000  -0.00435  -0.00432  -3.12668
   D76        0.01390   0.00008   0.00000  -0.00009  -0.00012   0.01377
   D77       -0.01461   0.00037   0.00000   0.00838   0.00833  -0.00628
   D78       -3.14084   0.00019   0.00000  -0.00068  -0.00098   3.14136
   D79        3.13230   0.00014   0.00000   0.00407   0.00413   3.13643
   D80        0.00607  -0.00003   0.00000  -0.00500  -0.00518   0.00089
   D81        3.09153   0.00037   0.00000   0.00369   0.00347   3.09501
   D82       -0.04005   0.00054   0.00000   0.01028   0.01008  -0.02998
   D83       -0.06622   0.00064   0.00000   0.01370   0.01346  -0.05276
   D84        3.08538   0.00081   0.00000   0.02030   0.02006   3.10545
         Item               Value     Threshold  Converged?
 Maximum Force            0.027899     0.000450     NO 
 RMS     Force            0.005660     0.000300     NO 
 Maximum Displacement     0.159694     0.001800     NO 
 RMS     Displacement     0.039188     0.001200     NO 
 Predicted change in Energy=-7.890741D-03
 GradGradGradGradGradGradGradGradGradGradGradGradGradGradGradGradGradGrad

                          Input orientation:                          
 ---------------------------------------------------------------------
 Center     Atomic      Atomic             Coordinates (Angstroms)
 Number     Number       Type             X           Y           Z
 ---------------------------------------------------------------------
      1          6           0        3.257491    1.880750    0.052792
      2          6           0        3.723913    0.559109   -0.020378
      3          6           0        2.816362   -0.489975   -0.070359
      4          6           0        1.422185   -0.266072   -0.060193
      5          6           0        0.948046    1.080967   -0.021027
      6          6           0        1.891854    2.128951    0.051906
      7          6           0       -0.484232    1.348633   -0.038080
      8          6           0       -0.986796    2.663431   -0.155813
      9          6           0       -2.348819    2.927988   -0.129080
     10          6           0       -3.258982    1.870846    0.029375
     11          6           0       -2.791392    0.567139    0.118408
     12          6           0       -1.412310    0.267139    0.060898
     13          6           0       -0.927824   -1.107764    0.060462
     14          6           0       -1.815538   -2.203596    0.138117
     15          6           0       -1.366028   -3.514317    0.064517
     16          6           0        0.004770   -3.771479   -0.096873
     17          6           0        0.900569   -2.713375   -0.152644
     18          6           0        0.471670   -1.371037   -0.058605
     19          1           0        3.955536    2.720330    0.120241
     20          1           0        4.795992    0.341521   -0.023445
     21          1           0        3.209187   -1.507943   -0.101631
     22          1           0        1.554576    3.164026    0.133622
     23          1           0       -0.299842    3.501013   -0.291759
     24          1           0       -2.698971    3.958791   -0.236213
     25          1           0       -4.335904    2.058486    0.069501
     26          1           0       -3.524288   -0.234631    0.225779
     27          1           0       -2.887680   -2.034378    0.253847
     28          1           0       -2.087739   -4.334088    0.124868
     29          1           0        0.377670   -4.796625   -0.178413
     30          1           0        1.960455   -2.942472   -0.278429
 ---------------------------------------------------------------------
                    Distance matrix (angstroms):
                    1          2          3          4          5
     1  C    0.000000
     2  C    1.403438   0.000000
     3  C    2.414560   1.388065   0.000000
     4  C    2.826652   2.445498   1.412078   0.000000
     5  C    2.445125   2.824495   2.441495   1.428586   0.000000
     6  C    1.388009   2.413725   2.780007   2.443214   1.412219
     7  C    3.780463   4.281605   3.778286   2.498437   1.457174
     8  C    4.320889   5.161133   4.941183   3.793986   2.503193
     9  C    5.706181   6.519316   6.193950   4.942392   3.780540
    10  C    6.516522   7.105206   6.518683   5.146627   4.280833
    11  C    6.190224   6.516788   5.709644   4.298881   3.777150
    12  C    4.940734   5.145157   4.297921   2.886753   2.498061
    13  C    5.142775   4.942029   3.797065   2.499109   2.883760
    14  C    6.513431   6.192187   4.943122   3.778383   4.295472
    15  C    7.105196   6.519778   5.163063   4.282613   5.145764
    16  C    6.523059   5.708929   4.321345   3.781308   4.943861
    17  C    5.167522   4.324110   2.936076   2.503982   3.796922
    18  C    4.283379   3.782065   2.504794   1.457542   2.498134
    19  H    1.093942   2.178141   3.411760   3.920334   3.428186
    20  H    2.177619   1.093942   2.147678   3.428278   3.918351
    21  H    3.392554   2.131724   1.091580   2.176542   3.438271
    22  H    2.133834   3.393424   3.871103   3.438119   2.175069
    23  H    3.924103   4.991898   5.068307   4.148486   2.736264
    24  H    6.315157   7.270341   7.087872   5.904606   4.650689
    25  H    7.595493   8.198589   7.594019   6.210957   5.374371
    26  H    7.106145   7.295686   6.352696   4.954833   4.668350
    27  H    7.289155   7.107358   5.918309   4.669096   4.949114
    28  H    8.197616   7.598670   6.234222   5.376111   6.209679
    29  H    7.275587   6.317136   4.950366   4.650902   5.907300
    30  H    5.005545   3.929051   2.605880   2.738700   4.156837
                    6          7          8          9         10
     6  C    0.000000
     7  C    2.502555   0.000000
     8  C    2.935208   1.412489   0.000000
     9  C    4.319089   2.445267   1.387736   0.000000
    10  C    5.157348   2.824269   2.413569   1.403942   0.000000
    11  C    4.937254   2.440945   2.779605   2.414690   1.387883
    12  C    3.792615   1.428550   2.443408   2.827235   2.446030
    13  C    4.292666   2.498074   3.777852   4.282809   3.782510
    14  C    5.702908   3.797598   4.945822   5.166134   4.323936
    15  C    6.516167   4.943316   6.193297   6.519712   5.708282
    16  C    6.196637   5.143747   6.511125   7.100936   6.519497
    17  C    4.946981   4.293101   5.698439   6.510304   6.192744
    18  C    3.778764   2.882842   4.291097   5.142154   4.943208
    19  H    2.147831   4.649533   4.950363   6.312700   7.264926
    20  H    3.410953   5.375431   6.232931   7.599296   8.199038
    21  H    3.871167   4.669626   5.916889   7.111235   7.298670
    22  H    1.091702   2.735300   2.606327   3.919339   4.985331
    23  H    2.608484   2.175107   1.091756   2.133807   3.393683
    24  H    4.950455   3.428884   2.148479   1.093909   2.177995
    25  H    6.228182   3.918015   3.410755   2.178067   1.093883
    26  H    5.911967   3.437774   3.870819   3.392611   2.131195
    27  H    6.341769   4.160114   5.084347   5.006204   3.929252
    28  H    7.590347   5.906870   7.089157   7.271204   6.315231
[...]
 .00000128,0.00003897,0.00001585,-0.00000084,-0.00000493,-0.00001926,0.
 00000008,0.00001311,0.00000890,0.00000002,-0.00000802,-0.00003554,0.00
 000052,0.00001552,0.00000730,-0.00000025,0.00001008,-0.00000216,-0.000
 00012,0.00001262,-0.00000808,-0.00000019,0.00000483,-0.00001525,0.0000
 0004,0.00022720,0.00093513,-0.00002154,-0.09166219,0.32549229,-0.00000
 056,0.00000086,-0.00002299,0.00000041,-0.00000046,0.00003436,0.0000000
 4,-0.00000191,-0.00002142,-0.00000004,-0.00000154,-0.00039690,-0.00000
 228,-0.00001716,0.00022206,0.00000226,-0.00000010,0.00013719,0.0001746
 3,0.00002532,0.00786946,0.00012783,-0.00039237,0.00370595,0.00040288,-
 0.00026004,-0.03751833,-0.00013699,0.00034315,0.00350110,0.00012713,0.
 00006475,0.00610040,0.00000657,0.00000141,-0.00061030,-0.00001517,-0.0
 0000145,-0.00091855,0.00000184,0.00000015,0.00005893,-0.00000228,-0.00
 000049,-0.00008143,0.00000017,0.00000027,-0.00001411,0.00000044,-0.000
 00033,0.00006916,0.00000264,0.00000224,0.00009031,0.00000022,0.,-0.000
 00444,0.00000009,0.00000001,0.00000161,0.00000048,-0.00000020,-0.00001
 431,-0.00000013,0.00000055,0.00001777,-0.00008140,-0.00001528,-0.00475
 138,-0.00054593,0.00026325,0.02579333,0.00000943,0.00002844,-0.0000013
 2,-0.00001581,-0.00000346,0.00000003,0.00000159,0.00000828,0.00000088,
 -0.00001545,0.00000554,0.00000141,0.00003509,0.00003344,-0.00001298,-0
 .00005502,-0.00006499,0.00000175,0.00076716,-0.00035166,-0.00001744,-0
 .00059382,-0.00397065,0.00010325,-0.01499063,0.00696849,0.00022687,-0.
 32853702,0.04784527,0.00377152,-0.00628387,-0.00082380,0.00013748,0.00
 150724,0.00164420,0.00008054,-0.00038993,-0.00029219,0.00000921,-0.000
 02625,0.00003138,0.00000210,-0.00001247,-0.00000920,-0.00000011,-0.000
 00605,0.00004023,0.00000041,-0.00003402,-0.00001802,0.00000023,0.00004
 946,0.00020317,-0.00000668,-0.00001035,-0.00000689,0.00000018,-0.00001
 206,0.00000615,0.00000043,-0.00000428,0.00000902,0.00000002,0.00003555
 ,0.00005965,0.00000057,-0.00078421,0.00031889,0.00001129,0.00094377,-0
 .00010642,-0.00005949,0.34750177,0.00000260,0.00008429,-0.00000057,-0.
 00001748,-0.00002881,0.00000028,0.00003446,0.00004035,-0.00000037,-0.0
 0012246,-0.00012366,0.00000235,-0.00014335,0.00017888,-0.00000163,0.00
 001899,-0.00006854,0.00000016,-0.00014405,-0.00106613,0.00000342,-0.00
 266839,-0.00336337,0.00006676,-0.02447809,0.00893482,0.00031264,0.0474
 1193,-0.06746265,-0.00054247,0.03028296,-0.00104778,-0.00039318,0.0006
 4374,-0.00502597,0.00003321,0.00125218,0.00059821,-0.00001812,0.000045
 87,-0.00002583,-0.00000009,-0.00006844,0.00000825,0.00000082,0.0000405
 0,0.00000696,-0.00000046,0.00013798,-0.00000183,-0.00000193,0.00007191
 ,-0.00039430,-0.00000098,0.00000328,0.00000048,-0.00000004,0.00000106,
 0.00000647,0.00000003,-0.00000765,0.00000012,0.00000010,0.00003684,0.0
 0007096,-0.00000043,-0.00112980,0.00019655,0.00001503,0.00088070,0.001
 06371,-0.00002668,-0.05178721,0.06625533,-0.00000123,-0.00000092,-0.00
 008144,0.00000008,0.00000009,-0.00001411,0.00000080,-0.00000002,0.0000
 6916,0.00000183,0.00000062,0.00009033,-0.00001241,-0.00000402,-0.00091
 858,0.00000148,0.00000129,0.00005893,-0.00001812,0.00000623,-0.0006099
 8,0.00009902,0.00008433,0.00610071,0.00032903,-0.00011168,0.00349628,0
 .00377293,-0.00054831,-0.03756286,0.00003643,0.00002656,0.00370582,0.0
 0008379,0.00001971,0.00787070,0.00000419,0.00000272,0.00022191,0.00000
 206,0.00000011,0.00013719,0.00000008,0.00000002,-0.00002299,0.00000041
 ,-0.00000045,0.00003436,-0.00000028,0.00000018,-0.00002142,-0.00000626
 ,-0.00000275,-0.00039681,0.00000015,0.00000010,0.00000161,0.00000044,-
 0.00000004,0.00002097,0.00000007,-0.00000012,-0.00000085,0.00000064,-0
 .00000074,0.00009182,0.00001599,-0.00000452,0.00012880,-0.00006270,-0.
 00001336,-0.00349005,-0.00417286,0.00056733,0.02584128,-0.00000993,-0.
 00009941,0.00000034,-0.00005553,0.00002169,0.00000063,0.00008140,0.000
 06889,-0.00000041,0.00008221,-0.00019302,-0.00000479,-0.00026752,-0.00
 151670,0.00001445,-0.00043101,0.00029576,0.00000459,-0.00455247,0.0031
 2250,0.00012842,-0.00021956,0.00093445,-0.00000636,0.00029897,0.002112
 96,0.00009079,0.01008171,0.01005381,-0.00009981,-0.18574737,-0.1408713
 3,0.00244669,-0.01481891,-0.02417806,0.00032717,0.00068932,-0.00157245
 ,-0.00004802,-0.00135649,-0.00037259,0.00002092,0.00081266,0.00035571,
 -0.00001759,0.00008551,-0.00010019,-0.00000102,0.00017333,-0.00009267,
 -0.00000047,-0.00014598,0.00011529,0.00000173,-0.00005573,0.00000592,0
 .00000054,-0.00000416,0.00000932,0.00000001,-0.00005101,0.00001864,0.0
 0000049,0.00002952,-0.00000968,-0.00000015,-0.00000362,-0.00010252,-0.
 00001334,0.00029572,0.00048503,-0.00000383,0.00094227,-0.00028045,-0.0
 0007593,0.19259091,0.00001855,0.00002014,-0.00000034,-0.00001289,0.000
 02060,0.00000010,-0.00001373,-0.00005306,0.00000058,0.00003259,0.00008
 270,-0.00000175,0.00025789,0.00039369,-0.00000333,0.00007022,-0.000048
 10,-0.00000086,0.00164604,0.00054103,-0.00000540,0.00097423,0.00014237
 ,-0.00001512,0.00346676,-0.00423964,-0.00000853,-0.02227110,-0.0188426
 7,0.00037831,-0.14072115,-0.21204073,0.00246311,0.00315541,0.00853903,
 -0.00005860,-0.00113043,-0.00141943,0.00000931,0.00303203,-0.00326858,
 -0.00002996,0.00023576,-0.00002336,-0.00000442,-0.00000026,-0.00005845
 ,0.00000015,-0.00008114,-0.00001017,0.00000150,-0.00005084,0.00014390,
 0.00000025,0.00000540,-0.00000527,-0.00000010,-0.00000736,0.,0.0000001
 0,0.00000421,0.00000774,-0.00000012,0.00001109,0.00000163,-0.00000010,
 -0.00007875,-0.00003132,-0.00000214,-0.00096366,-0.00088357,0.00001629
 ,0.00018364,0.00121830,-0.00002187,0.15002629,0.23333551,-0.00000004,0
 .00000125,-0.00000830,0.00000074,-0.00000037,-0.00000363,-0.00000015,-
 0.00000054,0.00006728,-0.00000553,0.00000130,-0.00031954,0.00000869,0.
 00002061,0.00043822,0.00000532,-0.00000390,-0.00001981,0.00013322,-0.0
 0002532,0.00571480,-0.00000649,-0.00001458,-0.00046566,0.00008639,0.00
 000974,0.00753489,0.00000520,-0.00005787,0.00510512,0.00244620,0.00246
 514,-0.03838070,0.00023838,0.00031023,0.00360235,-0.00004946,0.0000152
 8,-0.00324738,0.00000986,0.00001598,0.00010397,-0.00001720,-0.00000604
 ,-0.00040521,-0.00000135,0.00000149,-0.00001452,-0.00000051,0.00000166
 ,0.00011604,0.00000227,-0.00000199,0.00000987,0.00000054,-0.00000011,-
 0.00001431,0.00000007,-0.00000013,-0.00000085,0.00000054,-0.00000031,-
 0.00001021,-0.00000022,0.00000018,0.00001577,-0.00001341,-0.00000182,-
 0.00101645,0.00000088,-0.00000326,0.00012900,-0.00007744,-0.00001561,-
 0.00475143,-0.00276077,-0.00270407,0.02415676,-0.00002142,-0.00005541,
 0.00000042,-0.00003762,0.00005306,0.00000022,-0.00010238,-0.00033932,0
 .00000222,-0.00062296,0.00070086,0.00001204,0.00000408,0.00012995,-0.0
 0000479,0.00005566,0.00001835,0.00000010,-0.00000098,-0.00023154,0.000
 00090,0.00001662,0.00011416,0.00000097,-0.00001991,0.00013111,-0.00000
 035,0.00077388,0.00028408,-0.00001684,-0.00080726,0.00234757,0.0000046
 7,-0.00145604,0.00154316,-0.00002919,-0.01593119,0.00454156,0.00024888
 ,-0.33349179,0.04340117,0.00384167,-0.00721085,-0.00072075,0.00016853,
 0.00124503,0.00228776,0.00007746,0.00085384,-0.00036347,-0.00001663,-0
 .00022962,-0.00374119,0.00009239,-0.00000157,-0.00001059,0.00000004,-0
 .00003044,-0.00002612,0.00000030,0.00001928,0.00002384,-0.00000012,-0.
 00001684,-0.00003836,0.00000021,0.00000207,-0.00001390,0.00000023,0.00
 005564,0.00006274,0.00000028,-0.00001003,-0.00003876,0.00000050,0.0014
 5918,0.00226119,-0.00000628,0.35500568,-0.00002082,-0.00001352,0.00000
 031,-0.00006490,0.00004784,0.00000069,-0.00011378,-0.00037675,0.000002
 70,-0.00107374,0.00074916,0.00001348,-0.00009566,0.00016083,-0.0000002
 7,0.00010097,-0.00002732,-0.00000106,-0.00006542,-0.00000111,0.0000009
 2,0.00010263,0.00014655,-0.00000148,0.00003119,0.00004698,-0.00000062,
 0.00040403,0.00001541,-0.00000682,-0.00105705,-0.00381784,0.00002700,0
 .00110114,0.00072606,-0.00002777,-0.02279191,0.00965138,0.00028791,0.0
 4325099,-0.06428711,-0.00049932,0.03160416,-0.00154905,-0.00040484,0.0
 0093396,-0.00518576,0.00002873,-0.00040326,-0.00093111,0.00000695,-0.0
 0226472,-0.00378209,0.00006142,0.00000609,-0.00000258,-0.00000008,-0.0
 0002560,-0.00003056,0.00000040,0.00000307,0.00001187,-0.00000003,-0.00
 002394,-0.00002643,0.00000038,0.00000687,0.00002909,-0.00000014,0.0000
 3993,0.00005086,-0.00000041,-0.00000079,0.00002125,0.,0.00177825,-0.00
 357486,-0.00000738,-0.05237853,0.07091063,0.00000031,0.00000078,-0.000
 00363,0.00000061,-0.00000090,-0.00000830,0.00000148,0.00000574,-0.0000
 1979,0.00001781,-0.00001047,0.00043820,-0.00000406,-0.00000331,-0.0003
 1955,-0.00000017,0.00000006,0.00006727,0.00000036,0.00000316,0.0000098
 8,0.00000101,-0.00000164,0.00011603,-0.00000003,-0.00000197,-0.0000145
 2,-0.00001723,-0.00000520,-0.00040521,0.00001573,-0.00001894,0.0001040
 0,-0.00002776,-0.00003373,-0.00324752,0.00033768,-0.00008092,0.0036022
 8,0.00384216,-0.00050135,-0.03838990,0.00006352,0.00003134,0.00510405,
 0.00008186,0.00001046,0.00753495,-0.00001650,0.00000642,-0.00046560,0.
 00008759,0.00008134,0.00571507,-0.00000001,0.00000015,-0.00000085,0.00
 000030,0.00000041,-0.00001431,-0.00000006,-0.00000031,0.00001577,0.000
 00017,0.00000057,-0.00001021,0.00000016,0.00000014,0.00001576,0.000000
 36,-0.00000071,0.00009182,0.00000038,0.00000051,0.00001776,-0.00000471
 ,-0.00001390,0.00153859,-0.00429481,0.00055474,0.02416688,-0.00003113,
 0.00000160,0.00000022,0.00005390,-0.00005282,-0.00000165,-0.00008277,0
 .00005357,0.00000174,0.00003773,-0.00014664,-0.00001243,-0.00011490,0.
 00000148,0.00000276,0.00003763,-0.00001046,0.00000046,0.00000991,0.000
 12119,-0.00000588,0.00003714,0.00004929,-0.00000095,0.00003845,-0.0000
 1497,0.,-0.00004225,-0.00003133,0.00000036,0.00001163,-0.00000133,0.00
 000170,0.00046571,0.00018587,-0.00000389,0.00006527,0.00244075,0.00009
 741,0.01014669,0.00980684,-0.00011876,-0.17977690,-0.13797618,0.002367
 86,-0.01416585,-0.02550594,0.00032124,-0.00491904,0.00272179,0.0001398
 8,-0.00019289,0.00105238,-0.00000905,-0.00000128,-0.00001237,0.0000003
 4,-0.00000787,0.00000019,0.00000013,0.00009652,-0.00003914,0.00000006,
 -0.00000188,-0.00001063,0.00000005,-0.00000814,0.00001324,-0.00000013,
 0.00000077,-0.00000518,0.00000003,0.00000470,0.00000137,-0.00000013,-0
 .00001708,-0.00002997,0.00000057,0.00100300,-0.00035612,-0.00007651,0.
 18678023,0.00001563,-0.00001350,-0.00000021,-0.00002698,0.00003982,-0.
 00000003,-0.00003041,-0.00004080,0.00000073,0.00003015,0.00017623,-0.0
 0000396,0.00012948,-0.00002420,-0.00000137,-0.00003664,0.00000431,0.00
 000071,0.00025246,-0.00035475,-0.00000354,-0.00010670,-0.00007299,0.00
 000161,-0.00001523,-0.00003755,0.00000044,0.00002791,0.00003804,-0.000
 00057,-0.00001582,-0.00006371,0.00000087,-0.00135850,-0.00025747,0.000
 01989,0.00344121,-0.00358392,-0.00000922,-0.02129992,-0.01747936,0.000
 35624,-0.13754284,-0.21623203,0.00243652,0.00594064,0.00811000,-0.0000
 9514,0.00141953,0.00096212,-0.00000246,0.00084478,-0.00010602,-0.00001
 304,-0.00000728,-0.00000431,0.00000018,-0.00000998,-0.00000200,0.00000
 015,-0.00001633,0.00000999,0.00000049,0.00000604,-0.00000227,-0.000000
 08,0.00001272,-0.00005287,-0.00000005,0.00000499,-0.00001064,-0.000000
 03,0.00002003,-0.00002197,-0.00000021,0.00000800,0.00002831,-0.0000001
 4,0.00010797,0.00115757,-0.00002066,0.14850749,0.22698688,0.00000018,-
 0.00000002,-0.00001411,-0.00000174,0.00000032,-0.00008144,0.00000201,-
 0.00000040,0.00005893,-0.00001300,-0.00000158,-0.00091858,0.00000235,0
 .00000035,0.00009032,0.00000054,0.00000035,0.00006916,-0.00000631,-0.0
 0000177,-0.00039681,-0.00000044,-0.00000050,-0.00002142,0.,0.00000044,
 0.00003437,0.00000017,0.00000022,-0.00002299,0.00000175,0.00000067,0.0
 0013719,0.00000112,-0.00000095,0.00022196,0.00009416,0.00000428,0.0078
 7061,-0.00001771,-0.00006351,0.00370685,0.00236646,0.00244237,-0.03755
 360,0.00021908,0.00032919,0.00349634,0.00014411,-0.00002003,0.00610044
 ,-0.00000838,-0.00001584,-0.00061004,0.00000032,0.00000025,0.00002097,
 0.00000016,0.,0.00000161,-0.00000001,0.00000079,0.00009182,0.,0.000000
 15,-0.00000085,-0.00000012,-0.00000005,-0.00001430,0.,0.00000011,0.000
 00162,-0.00000019,0.00000004,-0.00000443,0.00000044,0.00000037,0.00001
 776,-0.00007801,-0.00001439,-0.00475143,-0.00265481,-0.00265751,0.0258
 3128,0.00003867,-0.00001468,-0.00000001,-0.00003055,0.00005800,-0.0000
 0009,0.00000753,-0.00002635,0.00000184,0.00076679,-0.00058429,-0.00000
 545,-0.00016423,-0.00019532,-0.00000251,0.00004206,-0.00009405,-0.0000
 0055,-0.00014721,0.00004639,0.00000305,0.00004916,-0.00000698,0.000000
 29,-0.00003463,0.00000662,0.00000026,0.00007900,0.00003756,-0.00000229
 ,-0.00008507,-0.00003633,0.00000206,0.00009523,0.00017799,-0.00001426,
 -0.00082234,-0.00077378,0.00000538,-0.00554477,-0.00018949,0.00015778,
 -0.00462974,0.03046163,0.00001075,-0.09149127,0.08947336,0.00043769,0.
 01039950,-0.02064985,-0.00002323,-0.00240055,-0.00289937,0.00014803,-0
 .00000066,0.00000130,0.00000003,-0.00000603,-0.00000757,0.00000005,-0.
 00000369,0.00004242,0.00000015,-0.00002279,-0.00002494,0.00000020,-0.0
 0000038,0.00000990,-0.00000004,0.00000496,0.00000877,0.00000019,-0.000
 00379,0.00000050,0.00000007,0.00010388,0.00000262,-0.00000017,-0.00039
 981,0.00135181,0.00000274,0.00136857,-0.00063582,-0.00006351,0.0917253
 5,-0.00001441,-0.00003776,0.00000043,-0.00000124,0.00002633,-0.0000001
 4,-0.00001186,-0.00005961,0.00000080,0.00096008,-0.00055868,-0.0000104
 2,-0.00032659,-0.00018054,0.00000370,0.00006194,-0.00007792,-0.0000006
 5,-0.00008160,0.00000812,0.00000137,0.00001920,-0.00000723,-0.00000001
 ,-0.00000741,-0.00000999,0.00000009,0.00001172,0.00001471,-0.00000047,
 0.00004765,-0.00003850,-0.00000033,0.00000120,0.00011872,-0.00000339,-
 0.00056617,0.00052368,0.00000396,0.00111277,0.00158810,-0.00000035,-0.
 00098495,-0.00142990,0.00002931,0.08904002,-0.30455271,-0.00033398,0.0
 1045692,-0.01773227,-0.00007146,-0.00389983,-0.00111711,0.00008182,-0.
 00000887,-0.00000921,0.00000015,-0.00002622,-0.00001123,0.00000038,0.0
 0000445,0.00001492,-0.00000005,-0.00002442,-0.00003822,0.00000041,-0.0
 0000678,-0.00000377,0.00000010,0.00000368,-0.00001055,0.00000005,0.000
 01068,-0.00000608,-0.00000012,-0.00002019,0.00000262,0.00000056,-0.000
 09688,-0.00018800,0.00000234,0.00035130,0.00063888,-0.00001816,-0.0959
 1503,0.32207949,-0.00000001,0.00000043,0.00003437,0.00000011,-0.000000
 94,-0.00002299,0.00000179,0.00000100,0.00013719,-0.00001047,0.00001042
 ,0.00022208,-0.00000208,0.00000193,-0.00039688,-0.00000106,0.00000145,
 -0.00002142,0.00000347,-0.00000036,0.00009031,0.00000021,0.00000034,0.
 00006916,0.00000030,-0.00000010,-0.00001411,-0.00000220,-0.00000082,-0
 .00008143,0.00000179,0.00000081,0.00005893,-0.00001369,-0.00000577,-0.
 00091856,0.00000470,0.00000676,-0.00061029,0.00015355,0.00001722,0.006
 10019,0.00011290,-0.00039502,0.00350012,0.00043910,-0.00033983,-0.0375
 1856,-0.00012428,0.00034829,0.00370695,0.00015128,0.00006832,0.0078696
 4,0.00000006,0.00000002,0.00000161,0.00000011,0.00000012,-0.00000444,0
 .00000028,-0.00000056,0.00001776,0.00000019,0.00000041,-0.00001431,0.0
 0000002,-0.00000012,-0.00000085,0.00000020,-0.00000002,0.00002097,0.00
 000004,0.00000002,0.00000161,-0.00000010,0.00000025,0.00009183,0.00000
 745,-0.00001721,0.00012895,-0.00006671,-0.00000484,-0.00349002,-0.0005
 7816,0.00033172,0.02579354,-0.00006595,-0.00008719,0.00000098,0.000441
 75,-0.00045001,-0.00000997,-0.00163862,-0.00319479,0.00003389,-0.00206
 269,-0.00045881,-0.00001450,0.00009931,0.00019248,-0.00000183,-0.00003
 954,-0.00004176,0.00000223,0.00001307,-0.00007254,-0.00000425,0.000004
 46,-0.00003069,0.00000095,0.00000537,0.00004806,-0.00000028,-0.0000223
 9,-0.00002575,0.00000027,0.00001463,0.00018711,-0.00000107,-0.00031670
 ,-0.00028623,0.00001112,0.00133275,0.00175272,0.00005346,0.00087829,-0
 .00034040,-0.00001703,-0.00068768,-0.00403577,0.00012408,-0.01689850,0
 .00669348,0.00027516,-0.32738257,0.05896015,0.00370869,-0.00640477,0.0
 0170416,0.00012955,0.00002034,-0.00005086,0.00000113,0.00000744,0.0000
 4413,0.,-0.00056659,-0.00343077,0.00003955,0.00000799,0.00002211,0.000
 00003,0.00000295,0.00002694,-0.00000026,-0.00000018,0.00000965,-0.0000
 0004,-0.00001299,0.00001928,-0.00000008,0.00000922,-0.00002281,0.00000
 016,-0.00010298,0.00002130,-0.00001240,-0.00079586,0.00033341,0.000011
 40,0.00110682,-0.00008914,-0.00007877,0.35305415,0.00001274,0.00009303
 ,-0.00000052,-0.00056996,0.00034768,0.00000524,0.00020983,-0.00298615,
 0.00000721,-0.00001679,0.00133296,-0.00001465,0.00002635,-0.00010144,0
 .,-0.00003024,0.00020273,0.00000013,0.00015307,0.00015184,-0.00000360,
 -0.00011332,0.00002391,0.00000167,0.00001347,-0.00004032,-0.00000006,0
 .00009221,0.00003260,-0.00000138,-0.00003843,-0.00049381,0.00000206,0.
 00148836,0.00044278,-0.00002010,0.00027626,-0.00534508,0.00003221,-0.0
 0030061,-0.00095556,0.00000565,-0.00268197,-0.00325228,0.00007124,-0.0
 2563143,0.00814246,0.00033599,0.05911033,-0.07039876,-0.00069347,0.029
 03763,0.00012118,-0.00038050,-0.00002805,0.00008618,0.00000040,0.00000
 616,0.00000378,-0.00000004,-0.00294784,-0.00154829,0.00004980,0.000001
 33,0.00002316,-0.00000004,0.00001251,-0.00004622,-0.00000005,-0.000007
 02,-0.00000397,0.00000010,0.00001876,-0.00004802,-0.00000014,-0.000002
 04,0.00002193,0.,0.00004507,0.00006804,-0.00000413,-0.00111528,0.00020
 821,0.00001479,0.00037495,0.00105370,-0.00002392,-0.05739666,0.0728629
 3,0.00000065,0.00000083,-0.00001454,-0.00000958,0.00000363,-0.00040534
 ,0.00002283,0.00005315,0.00010367,-0.00001594,-0.00000869,-0.00324776,
 -0.00000129,-0.00000224,0.00000992,0.00000220,0.00000028,0.00011601,-0
 .00000499,-0.00000055,-0.00031955,0.00000122,0.00000056,0.00006725,-0.
 00000017,-0.00000053,-0.00000362,-0.00000011,0.00000021,-0.00000829,-0
 .00000034,-0.00000098,-0.00001974,0.00000535,0.00000385,0.00043832,0.0
 0005826,0.00001228,0.00571569,-0.00001716,0.00000618,-0.00046559,0.000
 11968,0.00008950,0.00753419,0.00038017,-0.00010019,0.00510020,0.003708
 21,-0.00069144,-0.03838748,0.00004076,-0.00001167,0.00360607,0.0000010
 6,0.00000070,0.00009181,0.00000012,-0.00000055,0.00001777,0.00003798,0
 .00005632,0.00153779,0.00000010,-0.00000032,0.00001577,-0.00000022,-0.
 00000025,-0.00001020,0.00000001,-0.00000012,-0.00000085,-0.00000008,-0
 .00000015,-0.00001430,0.00000009,0.00000029,0.00001576,-0.00001247,-0.
 00000381,-0.00101646,0.00001610,-0.00000476,0.00012880,-0.00008028,-0.
 00001766,-0.00475138,-0.00425217,0.00061611,0.02416610\\0.00001438,0.0
 0000180,-0.00000020,0.00001234,0.00000760,-0.00000019,-0.00001830,-0.0
 0000161,0.00000025,-0.00000968,0.00002538,0.00000005,0.00000833,-0.000
 02585,-0.00000003,-0.00001529,-0.00001020,0.00000024,-0.00001713,-0.00
 002107,0.00000030,0.00001055,-0.00001505,-0.00000009,-0.00001275,0.000
 00689,0.00000015,-0.00000875,0.00001156,0.00000008,0.00001648,-0.00000
 814,-0.00000020,0.00001822,0.00002014,-0.00000031,0.00002681,-0.000004
 30,-0.00000035,0.00000776,0.00001666,-0.00000016,0.00000041,-0.0000144
 9,0.00000004,-0.00000563,-0.00001336,0.00000012,-0.00000119,0.00001834
 ,-0.00000004,-0.00002655,0.00000571,0.00000034,0.00000162,0.00000123,-
 0.00000003,0.00000203,0.00000005,-0.00000003,0.00000073,-0.00000329,0.
 ,-0.00000150,0.00000302,0.00000001,0.00000249,0.00000228,-0.00000004,-
 0.00000106,0.00000174,0.,-0.00000188,0.00000079,0.00000002,-0.00000187
 ,-0.00000281,0.00000003,-0.00000322,0.00000102,0.00000004,-0.00000097,
 -0.00000179,0.00000002,0.00000026,-0.00000202,0.,0.00000337,-0.0000002
 2,-0.00000004\\\@
 The archive entry for this job was punched.


 IT IS IMPOSSIBLE TO MEDITATE ON TIME AND THE MYSTERY 
 OF NATURE WITHOUT AN OVERWHELMING EMOTION AT THE
 LIMITATIONS OF HUMAN INTELLIGENCE.

                                         -- ALFRED NORTH WHITEHEAD
 Job cpu time:       0 days  0 hours 48 minutes 38.4 seconds.
 Elapsed time:       0 days  0 hours  6 minutes  9.0 seconds.
 File lengths (MBytes):  RWF=    168 Int=      0 D2E=      0 Chk=      9 Scr=      2
 Normal termination of Gaussian 16 at Tue Mar 12 12:12:16 2024.
