 Entering Gaussian System, Link 0=g16
 Initial command:
 /opt/g16/l1.exe "/tmp/Gau-1332739.inp" -scrdir="/tmp/"
 Entering Link 1 = /opt/g16/l1.exe PID=   1332741.
  
 Copyright (c) 1988-2019, Gaussian, Inc.  All Rights Reserved.
  
 This is part of the Gaussian(R) 16 program.  It is based on
 the Gaussian(R) 09 system (copyright 2009, Gaussian, Inc.),
 the Gaussian(R) 03 system (copyright 2003, Gaussian, Inc.),
 the Gaussian(R) 98 system (copyright 1998, Gaussian, Inc.),
 the Gaussian(R) 94 system (copyright 1995, Gaussian, Inc.),
 the Gaussian 92(TM) system (copyright 1992, Gaussian, Inc.),
 the Gaussian 90(TM) system (copyright 1990, Gaussian, Inc.),
 the Gaussian 88(TM) system (copyright 1988, Gaussian, Inc.),
 the Gaussian 86(TM) system (copyright 1986, Carnegie Mellon
 University), and the Gaussian 82(TM) system (copyright 1983,
 Carnegie Mellon University). Gaussian is a federally registered
 trademark of Gaussian, Inc.
  
 This software contains proprietary and confidential information,
 including trade secrets, belonging to Gaussian, Inc.
  
 This software is provided under written license and may be
 used, copied, transmitted, or stored only in accord with that
 written license.
  
 The following legend is applicable only to US Government
 contracts under FAR:
  
                    RESTRICTED RIGHTS LEGEND
  
 Use, reproduction and disclosure by the US Government is
 subject to restrictions as set forth in subparagraphs (a)
 and (c) of the Commercial Computer Software - Restricted
 Rights clause in FAR 52.227-19.
  
 Gaussian, Inc.
 340 Quinnipiac St., Bldg. 40, Wallingford CT 06492
  
  
 ---------------------------------------------------------------
 Warning -- This program may not be used in any manner that
 competes with the business of Gaussian, Inc. or will provide
 assistance to any competitor of Gaussian, Inc.  The licensee
 of this program is prohibited from giving any competitor of
 Gaussian, Inc. access to this program.  By using this program,
 the user acknowledges that Gaussian, Inc. is engaged in the
 business of creating and licensing software in the field of
 computational chemistry and represents and warrants to the
 licensee that it is not a competitor of Gaussian, Inc. and that
 it will not use this program in any manner prohibited above.
 ---------------------------------------------------------------
  

 Cite this work as:
 Gaussian 16, Revision C.01,
 M. J. Frisch, G. W. Trucks, H. B. Schlegel, G. E. Scuseria, 
 M. A. Robb, J. R. Cheeseman, G. Scalmani, V. Barone, 
 G. A. Petersson, H. Nakatsuji, X. Li, M. Caricato, A. V. Marenich, 
 J. Bloino, B. G. Janesko, R. Gomperts, B. Mennucci, H. P. Hratchian, 
 J. V. Ortiz, A. F. Izmaylov, J. L. Sonnenberg, D. Williams-Young, 
 F. Ding, F. Lipparini, F. Egidi, J. Goings, B. Peng, A. Petrone, 
 T. Henderson, D. Ranasinghe, V. G. Zakrzewski, J. Gao, N. Rega, 
 G. Zheng, W. Liang, M. Hada, M. Ehara, K. Toyota, R. Fukuda, 
 J. Hasegawa, M. Ishida, T. Nakajima, Y. Honda, O. Kitao, H. Nakai, 
 T. Vreven, K. Throssell, J. A. Montgomery, Jr., J. E. Peralta, 
 F. Ogliaro, M. J. Bearpark, J. J. Heyd, E. N. Brothers, K. N. Kudin, 
 V. N. Staroverov, T. A. Keith, R. Kobayashi, J. Normand, 
 K. Raghavachari, A. P. Rendell, J. C. Burant, S. S. Iyengar, 
 J. Tomasi, M. Cossi, J. M. Millam, M. Klene, C. Adamo, R. Cammi, 
 J. W. Ochterski, R. L. Martin, K. Morokuma, O. Farkas, 
 J. B. Foresman, and D. J. Fox, Gaussian, Inc., Wallingford CT, 2019.
 
 ******************************************
 Gaussian 16:  ES64L-G16RevC.01  3-Jul-2019
                 8-Oct-2024 
 ******************************************
 %nprocshared=8
 Will use up to    8 processors via shared memory.
 %mem=8800MB
 ----------------------------------------------------------------------
 #N opt freq B3LYP/def2SVPP symm=veryloose em=gd3bj scale=0.961 press=0
 .987
 ----------------------------------------------------------------------
 1/18=20,19=15,26=3,38=1,113=-987000,114=961000/1,3;
 2/9=110,12=2,17=2,18=2,40=1/2;
 3/5=43,7=202,11=2,25=1,30=1,71=1,74=-5,124=41/1,2,3;
 4//1;
 5/5=2,38=5/2;
 6/7=2,8=2,9=2,10=2,28=1/1;
 7//1,2,3,16;
 1/18=20,19=15,26=3/3(2);
 2/9=110/2;
 99//99;
 2/9=110/2;
 3/5=43,7=202,11=2,25=1,30=1,71=1,74=-5,124=41/1,2,3;
 4/5=5,16=3,69=1/1;
 5/5=2,38=5/2;
 7//1,2,3,16;
 1/18=20,19=15,26=3/3(-5);
 2/9=110/2;
 6/7=2,8=2,9=2,10=2,19=2,28=1/1;
 99/9=1/99;
 ----------------------------------
 c1ccc2cc3cc4cc5ccccc5cc4cc3cc2c1_2
 ----------------------------------
 Symbolic Z-matrix:
 Charge =  0 Multiplicity = 1
 C                     6.1126    0.6568   -0.2051 
 C                     6.1037   -0.4868    0.5874 
 C                     4.8906   -1.0763    0.9465 
 C                     3.6703   -0.5287    0.5169 
 C                     2.441    -1.11      0.8695 
 C                     1.2207   -0.5617    0.4395 
 C                    -0.0089   -1.1431    0.7922 
 C                    -1.2297   -0.5958    0.3628 
 C                    -2.4588   -1.1782    0.7162 
 C                    -3.6793   -0.631     0.2868 
 C                    -4.9084   -1.2126    0.6398 
 C                    -6.1126   -0.6567    0.2051 
 C                    -6.1037    0.4868   -0.5874 
 C                    -4.8906    1.0763   -0.9465 
 C                    -3.6703    0.5287   -0.5169 
 C                    -2.441     1.11     -0.8695 
 C                    -1.2207    0.5617   -0.4395 
 C                     0.0089    1.1431   -0.7922 
 C                     1.2297    0.5958   -0.3628 
 C                     2.4588    1.1781   -0.7162 
 C                     3.6793    0.631    -0.2868 
 C                     4.9084    1.2126   -0.6398 
 H                     7.056     1.1175   -0.4859 
 H                     7.0401   -0.9214    0.9271 
 H                     4.9043   -1.9698    1.5665 
 H                     2.4345   -2.0046    1.4895 
 H                    -0.0159   -2.0379    1.4123 
 H                    -2.4662   -2.0728    1.3362 
 H                    -4.936    -2.1067    1.2586 
 H                    -7.056    -1.1174    0.4859 
 H                    -7.0401    0.9214   -0.9271 
 H                    -4.9042    1.9698   -1.5665 
 H                    -2.4345    2.0046   -1.4895 
 H                     0.0159    2.0378   -1.4123 
 H                     2.4662    2.0728   -1.3362 
 H                     4.936     2.1067   -1.2586 
 

 GradGradGradGradGradGradGradGradGradGradGradGradGradGradGradGradGradGrad
 Berny optimization.
 Initialization pass.
                           ----------------------------
                           !    Initial Parameters    !
                           ! (Angstroms and Degrees)  !
 --------------------------                            --------------------------
 ! Name  Definition              Value          Derivative Info.                !
 --------------------------------------------------------------------------------
 ! R1    R(1,2)                  1.3914         estimate D2E/DX2                !
 ! R2    R(1,22)                 1.3957         estimate D2E/DX2                !
 ! R3    R(1,23)                 1.0868         estimate D2E/DX2                !
 ! R4    R(2,3)                  1.3957         estimate D2E/DX2                !
 ! R5    R(2,24)                 1.0868         estimate D2E/DX2                !
 ! R6    R(3,4)                  1.4048         estimate D2E/DX2                !
 ! R7    R(3,25)                 1.0876         estimate D2E/DX2                !
 ! R8    R(4,5)                  1.4048         estimate D2E/DX2                !
 ! R9    R(4,21)                 1.411          estimate D2E/DX2                !
 ! R10   R(5,6)                  1.4052         estimate D2E/DX2                !
 ! R11   R(5,26)                 1.0885         estimate D2E/DX2                !
 ! R12   R(6,7)                  1.4051         estimate D2E/DX2                !
 ! R13   R(6,19)                 1.4084         estimate D2E/DX2                !
 ! R14   R(7,8)                  1.4051         estimate D2E/DX2                !
 ! R15   R(7,27)                 1.0887         estimate D2E/DX2                !
 ! R16   R(8,9)                  1.4053         estimate D2E/DX2                !
 ! R17   R(8,17)                 1.4084         estimate D2E/DX2                !
 ! R18   R(9,10)                 1.4048         estimate D2E/DX2                !
 ! R19   R(9,28)                 1.0885         estimate D2E/DX2                !
 ! R20   R(10,11)                1.4048         estimate D2E/DX2                !
 ! R21   R(10,15)                1.411          estimate D2E/DX2                !
 ! R22   R(11,12)                1.3957         estimate D2E/DX2                !
 ! R23   R(11,29)                1.0877         estimate D2E/DX2                !
 ! R24   R(12,13)                1.3913         estimate D2E/DX2                !
 ! R25   R(12,30)                1.0868         estimate D2E/DX2                !
 ! R26   R(13,14)                1.3957         estimate D2E/DX2                !
 ! R27   R(13,31)                1.0868         estimate D2E/DX2                !
 ! R28   R(14,15)                1.4048         estimate D2E/DX2                !
 ! R29   R(14,32)                1.0876         estimate D2E/DX2                !
 ! R30   R(15,16)                1.4048         estimate D2E/DX2                !
 ! R31   R(16,17)                1.4052         estimate D2E/DX2                !
 ! R32   R(16,33)                1.0885         estimate D2E/DX2                !
 ! R33   R(17,18)                1.4051         estimate D2E/DX2                !
 ! R34   R(18,19)                1.4051         estimate D2E/DX2                !
 ! R35   R(18,34)                1.0886         estimate D2E/DX2                !
 ! R36   R(19,20)                1.4052         estimate D2E/DX2                !
 ! R37   R(20,21)                1.4048         estimate D2E/DX2                !
 ! R38   R(20,35)                1.0886         estimate D2E/DX2                !
 ! R39   R(21,22)                1.4048         estimate D2E/DX2                !
 ! R40   R(22,36)                1.0877         estimate D2E/DX2                !
 ! A1    A(2,1,22)             119.9461         estimate D2E/DX2                !
 ! A2    A(2,1,23)             120.0753         estimate D2E/DX2                !
 ! A3    A(22,1,23)            119.9787         estimate D2E/DX2                !
 ! A4    A(1,2,3)              119.95           estimate D2E/DX2                !
 ! A5    A(1,2,24)             120.0793         estimate D2E/DX2                !
 ! A6    A(3,2,24)             119.9706         estimate D2E/DX2                !
 ! A7    A(2,3,4)              120.7751         estimate D2E/DX2                !
 ! A8    A(2,3,25)             118.8612         estimate D2E/DX2                !
 ! A9    A(4,3,25)             120.3637         estimate D2E/DX2                !
 ! A10   A(3,4,5)              121.4719         estimate D2E/DX2                !
 ! A11   A(3,4,21)             119.276          estimate D2E/DX2                !
 ! A12   A(5,4,21)             119.2521         estimate D2E/DX2                !
 ! A13   A(4,5,6)              121.4434         estimate D2E/DX2                !
 ! A14   A(4,5,26)             119.2288         estimate D2E/DX2                !
 ! A15   A(6,5,26)             119.3278         estimate D2E/DX2                !
 ! A16   A(5,6,7)              121.4443         estimate D2E/DX2                !
 ! A17   A(5,6,19)             119.304          estimate D2E/DX2                !
 ! A18   A(7,6,19)             119.2517         estimate D2E/DX2                !
 ! A19   A(6,7,8)              121.4957         estimate D2E/DX2                !
 ! A20   A(6,7,27)             119.2541         estimate D2E/DX2                !
 ! A21   A(8,7,27)             119.2502         estimate D2E/DX2                !
 ! A22   A(7,8,9)              121.4423         estimate D2E/DX2                !
 ! A23   A(7,8,17)             119.2526         estimate D2E/DX2                !
 ! A24   A(9,8,17)             119.3051         estimate D2E/DX2                !
 ! A25   A(8,9,10)             121.4392         estimate D2E/DX2                !
 ! A26   A(8,9,28)             119.3286         estimate D2E/DX2                !
 ! A27   A(10,9,28)            119.2322         estimate D2E/DX2                !
 ! A28   A(9,10,11)            121.4707         estimate D2E/DX2                !
 ! A29   A(9,10,15)            119.2562         estimate D2E/DX2                !
 ! A30   A(11,10,15)           119.2731         estimate D2E/DX2                !
 ! A31   A(10,11,12)           120.7768         estimate D2E/DX2                !
 ! A32   A(10,11,29)           120.3622         estimate D2E/DX2                !
 ! A33   A(12,11,29)           118.861          estimate D2E/DX2                !
 ! A34   A(11,12,13)           119.9491         estimate D2E/DX2                !
 ! A35   A(11,12,30)           119.9757         estimate D2E/DX2                !
 ! A36   A(13,12,30)           120.0752         estimate D2E/DX2                !
 ! A37   A(12,13,14)           119.95           estimate D2E/DX2                !
 ! A38   A(12,13,31)           120.0794         estimate D2E/DX2                !
 ! A39   A(14,13,31)           119.9706         estimate D2E/DX2                !
 ! A40   A(13,14,15)           120.7751         estimate D2E/DX2                !
 ! A41   A(13,14,32)           118.8665         estimate D2E/DX2                !
 ! A42   A(15,14,32)           120.3585         estimate D2E/DX2                !
 ! A43   A(10,15,14)           119.276          estimate D2E/DX2                !
 ! A44   A(10,15,16)           119.2521         estimate D2E/DX2                !
 ! A45   A(14,15,16)           121.4719         estimate D2E/DX2                !
 ! A46   A(15,16,17)           121.4434         estimate D2E/DX2                !
 ! A47   A(15,16,33)           119.2288         estimate D2E/DX2                !
 ! A48   A(17,16,33)           119.3278         estimate D2E/DX2                !
 ! A49   A(8,17,16)            119.304          estimate D2E/DX2                !
 ! A50   A(8,17,18)            119.2517         estimate D2E/DX2                !
 ! A51   A(16,17,18)           121.4443         estimate D2E/DX2                !
 ! A52   A(17,18,19)           121.4957         estimate D2E/DX2                !
 ! A53   A(17,18,34)           119.254          estimate D2E/DX2                !
 ! A54   A(19,18,34)           119.2503         estimate D2E/DX2                !
 ! A55   A(6,19,18)            119.2526         estimate D2E/DX2                !
 ! A56   A(6,19,20)            119.3022         estimate D2E/DX2                !
 ! A57   A(18,19,20)           121.4452         estimate D2E/DX2                !
 ! A58   A(19,20,21)           121.445          estimate D2E/DX2                !
 ! A59   A(19,20,35)           119.3258         estimate D2E/DX2                !
 ! A60   A(21,20,35)           119.2292         estimate D2E/DX2                !
 ! A61   A(4,21,20)            119.2533         estimate D2E/DX2                !
 ! A62   A(4,21,22)            119.2731         estimate D2E/DX2                !
 ! A63   A(20,21,22)           121.4737         estimate D2E/DX2                !
 ! A64   A(1,22,21)            120.7798         estimate D2E/DX2                !
 ! A65   A(1,22,36)            118.858          estimate D2E/DX2                !
 ! A66   A(21,22,36)           120.3622         estimate D2E/DX2                !
 ! D1    D(22,1,2,3)            -0.0047         estimate D2E/DX2                !
 ! D2    D(22,1,2,24)         -179.9997         estimate D2E/DX2                !
 ! D3    D(23,1,2,3)           179.9985         estimate D2E/DX2                !
 ! D4    D(23,1,2,24)            0.0035         estimate D2E/DX2                !
 ! D5    D(2,1,22,21)            0.006          estimate D2E/DX2                !
 ! D6    D(2,1,22,36)         -179.9977         estimate D2E/DX2                !
 ! D7    D(23,1,22,21)        -179.9972         estimate D2E/DX2                !
 ! D8    D(23,1,22,36)          -0.0009         estimate D2E/DX2                !
 ! D9    D(1,2,3,4)              0.0019         estimate D2E/DX2                !
 ! D10   D(1,2,3,25)           179.9986         estimate D2E/DX2                !
 ! D11   D(24,2,3,4)           179.9969         estimate D2E/DX2                !
 ! D12   D(24,2,3,25)           -0.0064         estimate D2E/DX2                !
 ! D13   D(2,3,4,5)            179.994          estimate D2E/DX2                !
 ! D14   D(2,3,4,21)            -0.0003         estimate D2E/DX2                !
 ! D15   D(25,3,4,5)            -0.0026         estimate D2E/DX2                !
 ! D16   D(25,3,4,21)         -179.9969         estimate D2E/DX2                !
 ! D17   D(3,4,5,6)            179.9967         estimate D2E/DX2                !
 ! D18   D(3,4,5,26)             0.0058         estimate D2E/DX2                !
 ! D19   D(21,4,5,6)            -0.009          estimate D2E/DX2                !
 ! D20   D(21,4,5,26)         -179.9999         estimate D2E/DX2                !
 ! D21   D(3,4,21,20)          179.9947         estimate D2E/DX2                !
 ! D22   D(3,4,21,22)            0.0015         estimate D2E/DX2                !
 ! D23   D(5,4,21,20)            0.0003         estimate D2E/DX2                !
 ! D24   D(5,4,21,22)         -179.9929         estimate D2E/DX2                !
 ! D25   D(4,5,6,7)           -179.9983         estimate D2E/DX2                !
 ! D26   D(4,5,6,19)             0.0139         estimate D2E/DX2                !
 ! D27   D(26,5,6,7)            -0.0075         estimate D2E/DX2                !
 ! D28   D(26,5,6,19)         -179.9953         estimate D2E/DX2                !
 ! D29   D(5,6,7,8)           -179.9971         estimate D2E/DX2                !
 ! D30   D(5,6,7,27)             0.0066         estimate D2E/DX2                !
 ! D31   D(19,6,7,8)            -0.0093         estimate D2E/DX2                !
 ! D32   D(19,6,7,27)          179.9944         estimate D2E/DX2                !
 ! D33   D(5,6,19,18)          179.9972         estimate D2E/DX2                !
 ! D34   D(5,6,19,20)           -0.0098         estimate D2E/DX2                !
 ! D35   D(7,6,19,18)            0.0091         estimate D2E/DX2                !
 ! D36   D(7,6,19,20)         -179.9979         estimate D2E/DX2                !
 ! D37   D(6,7,8,9)            179.9995         estimate D2E/DX2                !
 ! D38   D(6,7,8,17)             0.0093         estimate D2E/DX2                !
 ! D39   D(27,7,8,9)            -0.0043         estimate D2E/DX2                !
 ! D40   D(27,7,8,17)         -179.9944         estimate D2E/DX2                !
 ! D41   D(7,8,9,10)          -179.9968         estimate D2E/DX2                !
 ! D42   D(7,8,9,28)             0.007          estimate D2E/DX2                !
 ! D43   D(17,8,9,10)           -0.0066         estimate D2E/DX2                !
 ! D44   D(17,8,9,28)          179.9972         estimate D2E/DX2                !
 ! D45   D(7,8,17,16)         -179.9972         estimate D2E/DX2                !
 ! D46   D(7,8,17,18)           -0.0091         estimate D2E/DX2                !
 ! D47   D(9,8,17,16)            0.0124         estimate D2E/DX2                !
 ! D48   D(9,8,17,18)         -179.9995         estimate D2E/DX2                !
 ! D49   D(8,9,10,11)         -179.9939         estimate D2E/DX2                !
 ! D50   D(8,9,10,15)            0.0018         estimate D2E/DX2                !
 ! D51   D(28,9,10,11)           0.0023         estimate D2E/DX2                !
 ! D52   D(28,9,10,15)         179.998          estimate D2E/DX2                !
 ! D53   D(9,10,11,12)         179.9974         estimate D2E/DX2                !
 ! D54   D(9,10,11,29)          -0.0036         estimate D2E/DX2                !
 ! D55   D(15,10,11,12)          0.0017         estimate D2E/DX2                !
 ! D56   D(15,10,11,29)       -179.9994         estimate D2E/DX2                !
 ! D57   D(9,10,15,14)        -179.9973         estimate D2E/DX2                !
 ! D58   D(9,10,15,16)          -0.0029         estimate D2E/DX2                !
 ! D59   D(11,10,15,14)         -0.0015         estimate D2E/DX2                !
 ! D60   D(11,10,15,16)        179.9929         estimate D2E/DX2                !
 ! D61   D(10,11,12,13)         -0.0006         estimate D2E/DX2                !
 ! D62   D(10,11,12,30)        179.9972         estimate D2E/DX2                !
 ! D63   D(29,11,12,13)       -179.9995         estimate D2E/DX2                !
 ! D64   D(29,11,12,30)         -0.0017         estimate D2E/DX2                !
 ! D65   D(11,12,13,14)         -0.0007         estimate D2E/DX2                !
 ! D66   D(11,12,13,31)        179.997          estimate D2E/DX2                !
 ! D67   D(30,12,13,14)       -179.9985         estimate D2E/DX2                !
 ! D68   D(30,12,13,31)         -0.0008         estimate D2E/DX2                !
 ! D69   D(12,13,14,15)          0.0008         estimate D2E/DX2                !
 ! D70   D(12,13,14,32)       -179.9961         estimate D2E/DX2                !
 ! D71   D(31,13,14,15)       -179.9969         estimate D2E/DX2                !
 ! D72   D(31,13,14,32)          0.0062         estimate D2E/DX2                !
 ! D73   D(13,14,15,10)          0.0003         estimate D2E/DX2                !
 ! D74   D(13,14,15,16)       -179.994          estimate D2E/DX2                !
 ! D75   D(32,14,15,10)        179.9971         estimate D2E/DX2                !
 ! D76   D(32,14,15,16)          0.0028         estimate D2E/DX2                !
 ! D77   D(10,15,16,17)          0.009          estimate D2E/DX2                !
 ! D78   D(10,15,16,33)        179.9999         estimate D2E/DX2                !
 ! D79   D(14,15,16,17)       -179.9967         estimate D2E/DX2                !
 ! D80   D(14,15,16,33)         -0.0058         estimate D2E/DX2                !
 ! D81   D(15,16,17,8)          -0.0139         estimate D2E/DX2                !
 ! D82   D(15,16,17,18)        179.9983         estimate D2E/DX2                !
 ! D83   D(33,16,17,8)         179.9953         estimate D2E/DX2                !
 ! D84   D(33,16,17,18)          0.0075         estimate D2E/DX2                !
 ! D85   D(8,17,18,19)           0.0093         estimate D2E/DX2                !
 ! D86   D(8,17,18,34)        -179.9979         estimate D2E/DX2                !
 ! D87   D(16,17,18,19)        179.9971         estimate D2E/DX2                !
 ! D88   D(16,17,18,34)         -0.01           estimate D2E/DX2                !
 ! D89   D(17,18,19,6)          -0.0093         estimate D2E/DX2                !
 ! D90   D(17,18,19,20)        179.9978         estimate D2E/DX2                !
 ! D91   D(34,18,19,6)         179.9979         estimate D2E/DX2                !
 ! D92   D(34,18,19,20)          0.005          estimate D2E/DX2                !
 ! D93   D(6,19,20,21)           0.0012         estimate D2E/DX2                !
 ! D94   D(6,19,20,35)        -179.9937         estimate D2E/DX2                !
 ! D95   D(18,19,20,21)        179.9941         estimate D2E/DX2                !
 ! D96   D(18,19,20,35)         -0.0008         estimate D2E/DX2                !
 ! D97   D(19,20,21,4)           0.0036         estimate D2E/DX2                !
 ! D98   D(19,20,21,22)        179.9966         estimate D2E/DX2                !
 ! D99   D(35,20,21,4)         179.9985         estimate D2E/DX2                !
 ! D100  D(35,20,21,22)         -0.0084         estimate D2E/DX2                !
 ! D101  D(4,21,22,1)           -0.0044         estimate D2E/DX2                !
 ! D102  D(4,21,22,36)         179.9994         estimate D2E/DX2                !
 ! D103  D(20,21,22,1)        -179.9974         estimate D2E/DX2                !
 ! D104  D(20,21,22,36)          0.0064         estimate D2E/DX2                !
 --------------------------------------------------------------------------------
 Trust Radius=3.00D-01 FncErr=1.00D-07 GrdErr=1.00D-06 EigMax=2.50D+02 EigMin=1.00D-04
 Number of steps in this run=    216 maximum allowed number of steps=    216.
 GradGradGradGradGradGradGradGradGradGradGradGradGradGradGradGradGradGrad

                          Input orientation:                          
 ---------------------------------------------------------------------
 Center     Atomic      Atomic             Coordinates (Angstroms)
 Number     Number       Type             X           Y           Z
 ---------------------------------------------------------------------
      1          6           0        6.112600    0.656800   -0.205100
      2          6           0        6.103700   -0.486800    0.587400
      3          6           0        4.890600   -1.076300    0.946500
      4          6           0        3.670300   -0.528700    0.516900
      5          6           0        2.441000   -1.110000    0.869500
      6          6           0        1.220700   -0.561700    0.439500
      7          6           0       -0.008900   -1.143100    0.792200
      8          6           0       -1.229700   -0.595800    0.362800
      9          6           0       -2.458800   -1.178200    0.716200
     10          6           0       -3.679300   -0.631000    0.286800
     11          6           0       -4.908400   -1.212600    0.639800
     12          6           0       -6.112600   -0.656700    0.205100
     13          6           0       -6.103700    0.486800   -0.587400
     14          6           0       -4.890600    1.076300   -0.946500
     15          6           0       -3.670300    0.528700   -0.516900
     16          6           0       -2.441000    1.110000   -0.869500
     17          6           0       -1.220700    0.561700   -0.439500
     18          6           0        0.008900    1.143100   -0.792200
     19          6           0        1.229700    0.595800   -0.362800
     20          6           0        2.458800    1.178100   -0.716200
     21          6           0        3.679300    0.631000   -0.286800
     22          6           0        4.908400    1.212600   -0.639800
     23          1           0        7.056000    1.117500   -0.485900
     24          1           0        7.040100   -0.921400    0.927100
     25          1           0        4.904300   -1.969800    1.566500
     26          1           0        2.434500   -2.004600    1.489500
     27          1           0       -0.015900   -2.037900    1.412300
     28          1           0       -2.466200   -2.072800    1.336200
     29          1           0       -4.936000   -2.106700    1.258600
     30          1           0       -7.056000   -1.117400    0.485900
     31          1           0       -7.040100    0.921400   -0.927100
     32          1           0       -4.904200    1.969800   -1.566500
     33          1           0       -2.434500    2.004600   -1.489500
     34          1           0        0.015900    2.037800   -1.412300
     35          1           0        2.466200    2.072800   -1.336200
     36          1           0        4.936000    2.106700   -1.258600
 ---------------------------------------------------------------------
                    Distance matrix (angstroms):
                    1          2          3          4          5
     1  C    0.000000
     2  C    1.391387   0.000000
     3  C    2.413110   1.395734   0.000000
     4  C    2.809186   2.434782   1.404832   0.000000
     5  C    4.213905   3.726034   2.451042   1.404783   0.000000
     6  C    5.082414   4.885813   3.740325   2.451045   1.405228
     7  C    6.458096   6.151142   4.902384   3.740293   2.451343
     8  C    7.469999   7.337648   6.166819   4.902882   3.741014
     9  C    8.813905   8.591335   7.353713   6.166639   4.902672
    10  C    9.888463   9.788679   8.606781   7.353913   6.166608
    11  C   11.210306  11.036117   9.804746   8.606795   7.353704
    12  C   12.302401  12.223461  11.036129   9.788704   8.591332
    13  C   12.223463  12.302385  11.210297   9.888468   8.813866
    14  C   11.036125  11.210297  10.192596   8.832133   7.863213
    15  C    9.788706   9.888468   8.832133   7.488074   6.477301
    16  C    8.591326   8.813866   7.863213   6.477301   5.637947
    17  C    7.337661   7.469987   6.477038   5.101525   4.232742
    18  C    6.151124   6.458054   5.637358   4.232553   3.708479
    19  C    4.885827   5.082399   4.232301   2.827526   2.428078
    20  C    3.726021   4.213853   3.709520   2.429287   2.783911
    21  C    2.434808   2.809167   2.429640   1.410999   2.429300
    22  C    1.395699   2.413032   2.784911   2.429603   3.709517
    23  H    1.086783   2.152354   3.399042   3.895965   5.300669
    24  H    2.152405   1.086793   2.155161   3.417313   4.603326
    25  H    3.390809   2.143942   1.087626   2.168222   2.700539
    26  H    4.845940   4.071920   2.681234   2.156718   1.088463
    27  H    6.887373   6.366779   5.021492   4.082585   2.681788
    28  H    9.133572   8.747530   7.434204   6.380606   5.022490
    29  H   11.482635  11.178084   9.885403   8.781150   7.454189
    30  H   13.305536  13.175191  11.955547  10.742488   9.504747
    31  H   13.175159  13.305496  12.241029  10.904155   9.861319
    32  H   11.177981  11.482510  10.560871   9.170884   8.328939
    33  H    8.747523   9.133534   8.311626   6.907375   6.247889
    34  H    6.366651   6.887214   6.246940   4.864501   4.582179
    35  H    4.071938   4.845946   4.583150   3.413450   3.872462
    36  H    2.143936   3.390794   3.872469   3.420487   4.593582
                    6          7          8          9         10
     6  C    0.000000
     7  C    1.405112   0.000000
     8  C    2.451837   1.405089   0.000000
     9  C    3.741037   2.451330   1.405264   0.000000
    10  C    4.902869   3.740256   2.451031   1.404789   0.000000
    11  C    6.166819   4.902362   3.740322   2.451033   1.404833
    12  C    7.337660   6.151132   4.885825   3.726049   2.434807
    13  C    7.469987   6.458054   5.082399   4.213893   2.809167
    14  C    6.477038   5.637358   4.232301   3.709581   2.429640
    15  C    5.101525   4.232553   2.827526   2.429357   1.410999
    16  C    4.232742   3.708479   2.428078   2.783994   2.429300
    17  C    2.827561   2.427321   1.408394   2.428124   2.827500
    18  C    2.427321   2.781609   2.427329   3.708537   4.232551
    19  C    1.408394   2.427329   2.827553   4.232771   5.101500
    20  C    2.428052   3.708475   4.232729   5.637970   6.477277
    21  C    2.827500   4.232551   5.101500   6.477305   7.488034
    22  C    4.232276   5.637356   6.477020   7.863224   8.832103
    23  H    6.142215   7.527062   8.503441   9.861374  10.904173
    24  H    5.850859   7.053776   8.295423   9.504711  10.742432
    25  H    4.101437   5.042074   6.400213   7.454186   8.781128
    26  H    2.158187   2.683023   4.084181   5.022481   6.380581
    27  H    2.157472   1.088687   2.157409   2.681679   4.082477
    28  H    4.084204   2.683021   2.158233   1.088469   2.156766
    29  H    6.400227   5.042060   4.101455   2.700524   2.168267
    30  H    8.295464   7.053800   5.850897   4.603366   3.417357
    31  H    8.503411   7.527013   6.142189   5.300666   3.895956
    32  H    6.924372   6.262394   4.879186   4.593539   3.420418
    33  H    4.864918   4.582325   3.412424   3.872456   3.413379
    34  H    3.411467   3.870214   3.411502   4.582282   4.864559
    35  H    3.412473   4.582381   4.864946   6.247957   6.907375
    36  H    4.879278   6.262509   6.924471   8.329074   9.170968
                   11         12         13         14         15
    11  C    0.000000
    12  C    1.395739   0.000000
    13  C    2.413032   1.391304   0.000000
    14  C    2.784911   2.413039   1.395734   0.000000
    15  C    2.429603   2.809143   2.434782   1.404832   0.000000
    16  C    3.709517   4.213863   3.726034   2.451042   1.404783
    17  C    4.232276   5.082391   4.885813   3.740325   2.451045
    18  C    5.637356   6.458069   6.151142   4.902384   3.740293
    19  C    6.477020   7.469982   7.337648   6.166819   4.902882
    20  C    7.863194   8.813863   8.591327   7.353712   6.166629
    21  C    8.832103   9.888450   9.788679   8.606781   7.353913
    22  C   10.192572  11.210289  11.036117   9.804746   8.606795
    23  H   12.241055  13.305536  13.175196  11.955547  10.742493
    24  H   11.955500  13.175161  13.305496  12.241029  10.904155
    25  H    9.885404  11.178091  11.482606  10.560964   9.170977
    26  H    7.434207   8.747539   9.133534   8.311626   6.907375
    27  H    5.021397   6.366694   6.887250   6.246990   4.864554
    28  H    2.681279   4.071972   4.845946   4.583150   3.413450
    29  H    1.087699   2.144003   3.390794   3.872469   3.420487
    30  H    2.155211   1.086783   2.152279   3.398977   3.895923
    31  H    3.399011   2.152332   1.086793   2.155161   3.417313
    32  H    3.872396   3.390767   2.143998   1.087625   2.168165
    33  H    4.583064   4.845886   4.071920   2.681234   2.156718
    34  H    6.246995   6.887294   6.366755   5.021473   4.082548
    35  H    8.311628   9.133542   8.747530   7.434204   6.380606
    36  H   10.560960  11.482611  11.178084   9.885403   8.781150
                   16         17         18         19         20
    16  C    0.000000
    17  C    1.405228   0.000000
    18  C    2.451343   1.405112   0.000000
    19  C    3.741014   2.451837   1.405089   0.000000
    20  C    4.902671   3.741020   2.451328   1.405223   0.000000
    21  C    6.166608   4.902869   3.740256   2.451031   1.404750
    22  C    7.353704   6.166819   4.902362   3.740322   2.451034
    23  H    9.504747   8.295470   7.053800   5.850906   4.603364
    24  H    9.861319   8.503411   7.527013   6.142189   5.300627
    25  H    8.329027   6.924461   6.262472   4.879261   4.593524
    26  H    6.247889   4.864918   4.582325   3.412424   3.872374
    27  H    4.582248   3.411543   3.870297   3.411580   4.582282
    28  H    3.872462   3.412473   4.582381   4.864946   6.247905
    29  H    4.593582   4.879278   6.262509   6.924471   8.329034
    30  H    5.300627   6.142188   7.527032   8.503421   9.861328
    31  H    4.603326   5.850859   7.053776   8.295423   9.504708
    32  H    2.700448   4.101347   5.041976   6.400117   7.454097
    33  H    1.088463   2.158187   2.683023   4.084181   5.022497
    34  H    2.681754   2.157404   1.088605   2.157342   2.681679
    35  H    5.022490   4.084204   2.683021   2.158233   1.088551
    36  H    7.454189   6.400227   5.042060   4.101455   2.700558
                   21         22         23         24         25
    21  C    0.000000
    22  C    1.404833   0.000000
    23  H    3.417371   2.155206   0.000000
    24  H    3.895956   3.399011   2.480713   0.000000
    25  H    3.420454   3.872395   4.286441   2.463659   0.000000
    26  H    3.413379   4.583064   5.916754   4.764574   2.471245
    27  H    4.864614   6.247047   7.973173   7.160246   4.923087
    28  H    6.907375   8.311628  10.206388   9.584510   7.374816
    29  H    9.170968  10.560960  12.539809  12.039178   9.846068
    30  H   10.904157  12.241036  14.320884  14.104365  12.039230
    31  H   10.742432  11.955500  14.104366  14.320824  12.539768
    32  H    8.781030   9.885304  12.039124  12.539672  11.024646
    33  H    6.380581   7.434207   9.584558  10.206345   8.887799
    34  H    4.082442   5.021381   7.160180   7.973020   6.987887
    35  H    2.156766   2.681279   4.764648   5.916783   5.541896
    36  H    2.168267   1.087699   2.463733   4.286480   4.959843
                   26         27         28         29         30
    26  H    0.000000
    27  H    2.451842   0.000000
    28  H    4.903571   2.451730   0.000000
    29  H    7.374823   4.922981   2.471251   0.000000
    30  H    9.584567   7.160206   4.764668   2.463773   0.000000
    31  H   10.206345   7.973057   5.916783   4.286480   2.480630
    32  H    8.887717   6.987874   5.541852   4.959844   4.286420
    33  H    6.975334   5.532800   4.960925   5.541872   5.916701
    34  H    5.532727   4.958902   5.532821   6.987983   7.973093
    35  H    4.960925   5.532895   6.975406   8.887844  10.206357
    36  H    5.541872   6.988042   8.887844  11.024764  12.539783
                   31         32         33         34         35
    31  H    0.000000
    32  H    2.463746   0.000000
    33  H    4.764574   2.471145   0.000000
    34  H    7.160231   4.922985   2.451841   0.000000
    35  H    9.584510   7.374716   4.903571   2.451731   0.000000
    36  H   12.039178   9.845968   7.374823   4.922982   2.471251
                   36
    36  H    0.000000
 Stoichiometry    C22H14
 Framework group  D2H[C2'(HC.CH),SG"(C20H12)]
 Deg. of freedom    18
 Full point group                 D2H     NOp   8
 Largest Abelian subgroup         D2H     NOp   8
 Largest concise Abelian subgroup D2      NOp   4
                         Standard orientation:                         
 ---------------------------------------------------------------------
 Center     Atomic      Atomic             Coordinates (Angstroms)
 Number     Number       Type             X           Y           Z
 ---------------------------------------------------------------------
      1          6           0       -6.111734   -0.695722    0.000000
      2          6           0       -6.111734    0.695722   -0.000000
      3          6           0       -4.902374    1.392471   -0.000000
      4          6           0       -3.676965    0.705501   -0.000000
      5          6           0       -2.451332    1.391969   -0.000000
      6          6           0       -1.225921    0.704196   -0.000000
      7          6           0        0.000000    1.390805   -0.000000
      8          6           0        1.225921    0.704196    0.000000
      9          6           0        2.451332    1.391969    0.000000
     10          6           0        3.676965    0.705501    0.000000
     11          6           0        4.902374    1.392471    0.000000
     12          6           0        6.111734    0.695722    0.000000
     13          6           0        6.111734   -0.695722    0.000000
     14          6           0        4.902374   -1.392471    0.000000
     15          6           0        3.676965   -0.705501    0.000000
     16          6           0        2.451332   -1.391969    0.000000
     17          6           0        1.225921   -0.704196    0.000000
     18          6           0       -0.000000   -1.390805   -0.000000
     19          6           0       -1.225921   -0.704196    0.000000
     20          6           0       -2.451332   -1.391969    0.000000
     21          6           0       -3.676965   -0.705501    0.000000
     22          6           0       -4.902374   -1.392471    0.000000
     23          1           0       -7.052204   -1.240344    0.000000
     24          1           0       -7.052204    1.240344   -0.000000
     25          1           0       -4.923035    2.479901   -0.000000
     26          1           0       -2.451790    2.480432   -0.000000
     27          1           0        0.000000    2.479492   -0.000000
     28          1           0        2.451790    2.480432    0.000000
     29          1           0        4.923035    2.479901    0.000000
     30          1           0        7.052204    1.240344    0.000000
     31          1           0        7.052204   -1.240344    0.000000
     32          1           0        4.923035   -2.479901    0.000000
     33          1           0        2.451790   -2.480432    0.000000
     34          1           0       -0.000000   -2.479492   -0.000000
     35          1           0       -2.451790   -2.480432    0.000000
     36          1           0       -4.923035   -2.479901    0.000000
 ---------------------------------------------------------------------
 Rotational constants (GHZ):           1.3599540           0.1181201           0.1086805
 Standard basis: def2SVPP (5D, 7F)
 There are    71 symmetry adapted cartesian basis functions of AG  symmetry.
 There are    64 symmetry adapted cartesian basis functions of B1G symmetry.
 There are    21 symmetry adapted cartesian basis functions of B2G symmetry.
 There are    23 symmetry adapted cartesian basis functions of B3G symmetry.
 There are    21 symmetry adapted cartesian basis functions of AU  symmetry.
 There are    23 symmetry adapted cartesian basis functions of B1U symmetry.
 There are    71 symmetry adapted cartesian basis functions of B2U symmetry.
 There are    64 symmetry adapted cartesian basis functions of B3U symmetry.
 There are    65 symmetry adapted basis functions of AG  symmetry.
 There are    59 symmetry adapted basis functions of B1G symmetry.
 There are    21 symmetry adapted basis functions of B2G symmetry.
 There are    23 symmetry adapted basis functions of B3G symmetry.
 There are    21 symmetry adapted basis functions of AU  symmetry.
 There are    23 symmetry adapted basis functions of B1U symmetry.
 There are    65 symmetry adapted basis functions of B2U symmetry.
 There are    59 symmetry adapted basis functions of B3U symmetry.
   336 basis functions,   606 primitive gaussians,   358 cartesian basis functions
    73 alpha electrons       73 beta electrons
       nuclear repulsion energy      1501.0458645368 Hartrees.
 NAtoms=   36 NActive=   36 NUniq=   10 SFac= 4.00D+00 NAtFMM=   60 NAOKFM=F Big=F
 Integral buffers will be    131072 words long.
 Raffenetti 2 integral format.
 Two-electron integral symmetry is turned on.
 Nuclear repulsion after empirical dispersion term =     1500.9557203598 Hartrees.
 One-electron integrals computed using PRISM.
   8 Symmetry operations used in ECPInt.
 ECPInt:  NShTT=   12880 NPrTT=   51688 LenC2=   11205 LenP2D=   30447.
 LDataN:  DoStor=T MaxTD1= 4 Len=   56
 NBasis=   336 RedAO= T EigKep=  2.15D-04  NBF=    65    59    21    23    21    23    65    59
 NBsUse=   336 1.00D-06 EigRej= -1.00D+00 NBFU=    65    59    21    23    21    23    65    59
 ExpMin= 1.22D-01 ExpMax= 1.24D+03 ExpMxC= 1.86D+02 IAcc=3 IRadAn=         5 AccDes= 0.00D+00
 Harris functional with IExCor=  402 and IRadAn=       5 diagonalized for initial guess.
 HarFok:  IExCor=  402 AccDes= 0.00D+00 IRadAn=         5 IDoV= 1 UseB2=F ITyADJ=14
 ICtDFT=  3500011 ScaDFX=  1.000000  1.000000  1.000000  1.000000
 FoFCou: FMM=F IPFlag=           0 FMFlag=      100000 FMFlg1=           0
         NFxFlg=           0 DoJE=T BraDBF=F KetDBF=T FulRan=T
         wScrn=  0.000000 ICntrl=       500 IOpCl=  0 I1Cent=   200000004 NGrid=           0
         NMat0=    1 NMatS0=      1 NMatT0=    0 NMatD0=    1 NMtDS0=    0 NMtDT0=    0
 Petite list used in FoFCou.
 Initial guess orbital symmetries:
       Occupied  (B3U) (AG) (B2U) (B1G) (B2U) (B1G) (B3U) (AG)
                 (B2U) (B1G) (B2U) (AG) (B3U) (B3U) (AG) (B2U)
                 (AG) (B1G) (B3U) (AG) (B2U) (B1G) (AG) (B3U) (AG)
                 (B3U) (B2U) (AG) (B1G) (B2U) (B3U) (B1G) (B2U)
                 (AG) (B1G) (B3U) (AG) (B3U) (AG) (B2U) (AG) (B3U)
                 (B1G) (B3U) (AG) (B3U) (B2U) (AG) (B2U) (B1G)
                 (B3U) (B2U) (AG) (B1G) (B2U) (B1G) (B1U) (B3U)
                 (B2G) (B2U) (AG) (B1G) (B1U) (B3U) (AG) (B2G)
                 (B3G) (AU) (B1U) (B3G) (B2G) (AU) (B3G)
       Virtual   (B1U) (B2G) (AU) (B1U) (B3G) (B2G) (B1U) (AU)
                 (AG) (B3U) (B3G) (B2U) (AG) (B1G) (B3U) (B2U)
                 (AU) (AG) (B1G) (B3U) (B3G) (AG) (B2U) (B1G) (AG)
                 (B1G) (B2U) (B2U) (B3U) (B2U) (B3U) (B1G) (B1G)
                 (AG) (B2U) (AG) (B3U) (B3U) (AG) (AG) (B3U) (B3U)
                 (AG) (AG) (B2U) (B3U) (B1G) (B2U) (B1G) (B2U)
                 (B1G) (AG) (AG) (B2U) (B3U) (B1U) (B1G) (B2U)
                 (B3U) (B1G) (B2G) (AG) (B3U) (B3G) (B1U) (B1G)
                 (AG) (B2U) (B2G) (B2U) (AU) (B3U) (B2U) (B1G)
                 (AG) (B1U) (B3G) (B1U) (B2G) (AU) (B1G) (B3G)
                 (B1U) (B2G) (AG) (AU) (B2U) (AG) (B1G) (B3U) (B3U)
                 (B2U) (B1G) (B3U) (AG) (B1G) (AG) (B2U) (B2U)
                 (B3G) (B1U) (B2G) (B3U) (B2U) (B1G) (B2U) (AG)
                 (B1G) (AU) (B3U) (AG) (B1G) (B3G) (B2U) (B3U)
                 (B3G) (B2U) (AG) (AU) (B1G) (B3U) (AG) (B2U) (AG)
                 (B1G) (B2U) (B1G) (B3U) (B2U) (B3U) (B1G) (AG)
                 (B2U) (B3U) (B1G) (B1G) (B1U) (B2U) (B2G) (B2G)
                 (B1U) (AG) (B2G) (B3U) (B2U) (AG) (B3U) (AG) (B1G)
                 (AU) (AG) (B3U) (B3G) (B1U) (B2U) (AU) (B2G) (B3G)
                 (B1U) (B2G) (B1U) (B2G) (B1G) (AU) (B3G) (B1U)
                 (B2U) (B1G) (B2U) (B2U) (B1G) (B3U) (AG) (B3U)
                 (AG) (AG) (B3U) (AG) (AU) (B3U) (AG) (B2U) (B3U)
                 (AG) (B3G) (B1G) (B3U) (AU) (B3G) (B2U) (B1G)
                 (B2U) (B1U) (B2G) (AG) (B1G) (B2U) (B3U) (B1G)
                 (B1U) (B3U) (AG) (B2U) (B3U) (AG) (B2G) (B1G)
                 (AU) (B3G) (AG) (B2U) (B2U) (B1U) (B1G) (B3U)
                 (AU) (B3G) (B3G) (B2G) (B2U) (AG) (B2G) (B1U)
                 (B1U) (AU) (B1G) (B2G) (B3U) (B3G) (B1G) (B2U)
                 (AG) (B3U) (AU) (AG) (B2U) (B1G) (B3G) (B3U) (B1G)
                 (AG) (AU) (B2U) (B3U) (AU) (B3G) (B1G) (AG) (B2U)
                 (B1G) (AG) (B3U) (B2U) (B1G) (AG) (B3U) (B2U)
                 (B1G) (B2U) (B1G) (B2U) (B1G) (B2U)
 The electronic state of the initial guess is 1-AG.
 Requested convergence on RMS density matrix=1.00D-08 within 128 cycles.
 Requested convergence on MAX density matrix=1.00D-06.
 Requested convergence on             energy=1.00D-06.
 No special actions if energy rises.
 Integral accuracy reduced to 1.0D-05 until final iterations.
 Initial convergence to 1.0D-05 achieved.  Increase integral accuracy.
 SCF Done:  E(RB3LYP) =  -846.240661677     A.U. after   14 cycles
            NFock= 14  Conv=0.42D-08     -V/T= 2.0101

 **********************************************************************

            Population analysis using the SCF Density.

 **********************************************************************

 Orbital symmetries:
       Occupied  (B3U) (AG) (B2U) (B1G) (AG) (B3U) (B2U) (B1G)
                 (B2U) (B2U) (B1G) (AG) (AG) (B3U) (B3U) (AG) (B1G)
                 (B2U) (B3U) (AG) (B2U) (B1G) (AG) (B3U) (AG) (B3U)
                 (B2U) (AG) (B1G) (B2U) (B3U) (B1G) (B2U) (AG)
                 (B3U) (B1G) (AG) (B3U) (AG) (B2U) (B3U) (AG) (B1G)
                 (AG) (B3U) (B2U) (B3U) (B2U) (B1G) (AG) (B2U)
                 (B1G) (AG) (B1U) (B2U) (B3U) (B2G) (B1G) (B3U)
                 (B1U) (AG) (B2U) (B3U) (AG) (B1G) (B2G) (B3G)
                 (AU) (B1U) (B3G) (B2G) (AU) (B3G)
       Virtual   (B1U) (B2G) (AU) (B1U) (B2G) (B3G) (B1U) (AG)
                 (B3U) (B2U) (B1G) (AG) (AU) (B3U) (B2U) (AG) (B1G)
                 (B3U) (B2U) (B3G) (B1G) (AG) (AU) (B2U) (B3G)
                 (B1G) (AG) (B2U) (B2U) (B3U) (AG) (B3U) (B3U)
                 (B1G) (AG) (B1G) (B2U) (B3U) (AG) (AG) (B3U) (AG)
                 (B2U) (B1G) (AG) (B3U) (B2U) (B3U) (B1G) (B2U)
                 (AG) (B3U) (B3U) (AG) (B1G) (B1U) (B2U) (B1G)
                 (B2G) (AG) (B2U) (B1U) (B3G) (B3U) (B1G) (AG)
                 (B2U) (B2G) (AU) (B1G) (B3U) (B2U) (AG) (B1G)
                 (B1U) (B3G) (B1U) (B2U) (AU) (B2G) (B3G) (B1U)
                 (B1G) (B2G) (AU) (AG) (B3U) (AG) (B2U) (B1G) (B3U)
                 (B3G) (B2U) (B3U) (B1U) (B2U) (B1G) (AG) (B2G)
                 (AG) (AG) (B1G) (AU) (B2U) (B3U) (B1G) (B3U) (B2U)
                 (B3G) (AG) (B2U) (B3G) (B1G) (B2U) (AU) (B3U)
                 (B1G) (AG) (B1G) (B2U) (B3U) (AG) (B2U) (B1G)
                 (B2U) (AG) (B1G) (B3U) (B2U) (B3U) (B1G) (AG)
                 (B2U) (B3U) (B1G) (B1G) (B2U) (B2G) (B1U) (AG)
                 (B2G) (B1U) (B2U) (B3U) (B2G) (AG) (B3U) (AG)
                 (B1G) (AG) (B3U) (B2U) (AU) (B3G) (B1U) (AU) (B2G)
                 (B3G) (B1U) (B1G) (B2G) (B2U) (B1U) (B2G) (B2U)
                 (AU) (B1G) (B3G) (B1U) (B2U) (B1G) (AG) (B3U)
                 (B3U) (AG) (AG) (B3U) (AG) (AU) (B3U) (AG) (B3U)
                 (B2U) (AG) (B3G) (B1G) (B3G) (AU) (B3U) (B2U)
                 (B1U) (B1G) (B2U) (B2G) (AG) (B1G) (B2U) (B3U)
                 (B1U) (B1G) (B3U) (AG) (B2U) (B3U) (AG) (B2G)
                 (B1G) (AU) (AG) (B3G) (B2U) (B2U) (B1U) (B3U)
                 (B1G) (AU) (B3G) (B3G) (B2G) (B2U) (AG) (B2G)
                 (B1U) (B1U) (AU) (B2G) (B1G) (B3U) (B3G) (B1G)
                 (B2U) (AG) (AU) (B3U) (AG) (B2U) (B1G) (B3G) (B3U)
                 (B1G) (AU) (AG) (AU) (B3G) (B2U) (B3U) (AG) (B1G)
                 (B2U) (B1G) (B3U) (AG) (B2U) (B1G) (AG) (B3U)
                 (B2U) (B1G) (B2U) (B1G) (B2U) (B1G) (B2U)
 The electronic state is 1-AG.
 Alpha  occ. eigenvalues --  -10.19624 -10.19623 -10.19598 -10.19591 -10.19587
 Alpha  occ. eigenvalues --  -10.19587 -10.19559 -10.19558 -10.19064 -10.19053
 Alpha  occ. eigenvalues --  -10.19051 -10.19047 -10.19038 -10.19037 -10.19026
 Alpha  occ. eigenvalues --  -10.19026 -10.19026 -10.19026 -10.18986 -10.18986
 Alpha  occ. eigenvalues --  -10.18958 -10.18958  -0.89116  -0.87632  -0.85263
 Alpha  occ. eigenvalues --   -0.81984  -0.78687  -0.77887  -0.77213  -0.74813
 Alpha  occ. eigenvalues --   -0.74242  -0.71539  -0.67501  -0.67480  -0.62297
 Alpha  occ. eigenvalues --   -0.61702  -0.61236  -0.60049  -0.59255  -0.57024
 Alpha  occ. eigenvalues --   -0.52722  -0.52721  -0.51481  -0.49686  -0.48461
 Alpha  occ. eigenvalues --   -0.46401  -0.46171  -0.45718  -0.45198  -0.43894
 Alpha  occ. eigenvalues --   -0.42693  -0.42231  -0.42105  -0.41837  -0.41481
 Alpha  occ. eigenvalues --   -0.40803  -0.40018  -0.39694  -0.38732  -0.37107
 Alpha  occ. eigenvalues --   -0.36118  -0.35813  -0.34480  -0.33775  -0.33517
 Alpha  occ. eigenvalues --   -0.33179  -0.31282  -0.29346  -0.28569  -0.26210
 Alpha  occ. eigenvalues --   -0.25198  -0.21990  -0.17080
 Alpha virt. eigenvalues --   -0.10302  -0.04864  -0.01769  -0.00353   0.02312
 Alpha virt. eigenvalues --    0.02409   0.03244   0.06608   0.06636   0.06924
 Alpha virt. eigenvalues --    0.08376   0.08568   0.08879   0.09980   0.10473
 Alpha virt. eigenvalues --    0.11842   0.12566   0.13609   0.14080   0.14974
 Alpha virt. eigenvalues --    0.16131   0.16163   0.19282   0.20010   0.21118
 Alpha virt. eigenvalues --    0.21528   0.24497   0.25765   0.26696   0.27183
 Alpha virt. eigenvalues --    0.27389   0.28190   0.28374   0.28961   0.29376
 Alpha virt. eigenvalues --    0.29652   0.30716   0.30978   0.32572   0.33365
 Alpha virt. eigenvalues --    0.33656   0.34933   0.35368   0.36122   0.36267
 Alpha virt. eigenvalues --    0.36327   0.36792   0.37728   0.38507   0.39656
 Alpha virt. eigenvalues --    0.40810   0.42812   0.43476   0.43516   0.44076
 Alpha virt. eigenvalues --    0.44508   0.44605   0.45414   0.45710   0.46727
 Alpha virt. eigenvalues --    0.46939   0.47505   0.47861   0.47897   0.48625
 Alpha virt. eigenvalues --    0.48747   0.48989   0.49935   0.50552   0.50756
 Alpha virt. eigenvalues --    0.51023   0.51490   0.52193   0.52569   0.53138
 Alpha virt. eigenvalues --    0.54024   0.55568   0.55740   0.57165   0.57180
 Alpha virt. eigenvalues --    0.60052   0.61452   0.61642   0.62292   0.63590
 Alpha virt. eigenvalues --    0.64283   0.65984   0.66684   0.66897   0.67098
 Alpha virt. eigenvalues --    0.67999   0.68811   0.68822   0.69349   0.69521
 Alpha virt. eigenvalues --    0.69629   0.69656   0.69731   0.69891   0.72067
 Alpha virt. eigenvalues --    0.72879   0.72966   0.73530   0.73603   0.74360
 Alpha virt. eigenvalues --    0.74723   0.76073   0.76186   0.76797   0.79138
 Alpha virt. eigenvalues --    0.79230   0.79646   0.80080   0.80336   0.80391
 Alpha virt. eigenvalues --    0.80736   0.80987   0.82256   0.82454   0.83562
 Alpha virt. eigenvalues --    0.86136   0.86948   0.87351   0.90681   0.91609
 Alpha virt. eigenvalues --    0.93926   0.95802   1.00170   1.06222   1.07935
 Alpha virt. eigenvalues --    1.10730   1.11348   1.12470   1.15875   1.16358
 Alpha virt. eigenvalues --    1.18421   1.18808   1.21407   1.21420   1.22657
 Alpha virt. eigenvalues --    1.23214   1.24937   1.25986   1.26221   1.26653
 Alpha virt. eigenvalues --    1.28194   1.28389   1.28755   1.30351   1.32443
 Alpha virt. eigenvalues --    1.33074   1.34101   1.35897   1.37378   1.37694
 Alpha virt. eigenvalues --    1.39750   1.40069   1.42104   1.43518   1.44478
 Alpha virt. eigenvalues --    1.46338   1.46661   1.47173   1.48204   1.48910
 Alpha virt. eigenvalues --    1.49283   1.49284   1.49293   1.49576   1.52089
 Alpha virt. eigenvalues --    1.54090   1.68057   1.69171   1.71559   1.71851
 Alpha virt. eigenvalues --    1.74308   1.74442   1.80073   1.80757   1.81958
 Alpha virt. eigenvalues --    1.83306   1.83460   1.83585   1.83782   1.84193
 Alpha virt. eigenvalues --    1.86228   1.87054   1.87144   1.87541   1.87980
 Alpha virt. eigenvalues --    1.88373   1.88605   1.89404   1.93854   1.95714
 Alpha virt. eigenvalues --    1.97936   1.98787   2.02395   2.02460   2.03386
 Alpha virt. eigenvalues --    2.05913   2.06617   2.08853   2.10913   2.11343
 Alpha virt. eigenvalues --    2.12443   2.15578   2.18584   2.18665   2.18953
 Alpha virt. eigenvalues --    2.21112   2.21834   2.21960   2.23450   2.23573
 Alpha virt. eigenvalues --    2.26140   2.26631   2.28025   2.28349   2.29747
 Alpha virt. eigenvalues --    2.30062   2.30781   2.32263   2.34886   2.35147
 Alpha virt. eigenvalues --    2.35307   2.36977   2.42961   2.43198   2.47817
 Alpha virt. eigenvalues --    2.47928   2.53237   2.55640   2.56307   2.60173
 Alpha virt. eigenvalues --    2.60858   2.61677   2.61896   2.62821   2.64616
 Alpha virt. eigenvalues --    2.66530   2.67115   2.68694   2.68977   2.69051
 Alpha virt. eigenvalues --    2.69856   2.71768   2.72629   2.80171   2.84325
 Alpha virt. eigenvalues --    2.85420   2.85527   2.86011   2.91644   2.93781
 Alpha virt. eigenvalues --    2.93974   2.99272   3.07940   3.23731   3.35853
 Alpha virt. eigenvalues --    3.44551   3.50424   3.50882
          Condensed to atoms (all electrons):
               1          2          3          4          5          6
     1  C    5.245373   0.130953   0.146837  -0.156216  -0.002269   0.000307
     2  C    0.130953   5.245373   0.230478   0.142746   0.019687  -0.001339
     3  C    0.146837   0.230478   5.459258   0.196224  -0.159518   0.019262
     4  C   -0.156216   0.142746   0.196224   5.430586   0.234297   0.143406
     5  C   -0.002269   0.019687  -0.159518   0.234297   5.740777   0.205109
     6  C    0.000307  -0.001339   0.019262   0.143406   0.205109   5.418786
     7  C   -0.000005   0.000016  -0.000909   0.020404  -0.163797   0.214597
     8  C    0.000000  -0.000000   0.000011  -0.001488   0.020410   0.144209
     9  C    0.000000  -0.000000  -0.000000   0.000012  -0.000913   0.020410
    10  C   -0.000000   0.000000  -0.000000   0.000000   0.000012  -0.001488
    11  C   -0.000000   0.000000  -0.000000  -0.000000  -0.000000   0.000011
    12  C    0.000000  -0.000000   0.000000   0.000000  -0.000000  -0.000000
    13  C   -0.000000   0.000000  -0.000000  -0.000000   0.000000   0.000000
    14  C    0.000000  -0.000000  -0.000000   0.000000   0.000000  -0.000003
    15  C    0.000000  -0.000000   0.000000   0.000000  -0.000004   0.000263
    16  C   -0.000000   0.000000   0.000000  -0.000004   0.000101  -0.001586
    17  C   -0.000000   0.000000  -0.000003   0.000263  -0.001586  -0.132919
    18  C    0.000016  -0.000005   0.000101  -0.001698   0.024592   0.031505
    19  C   -0.001339   0.000307  -0.001674  -0.132521   0.032345  -0.053112
    20  C    0.019687  -0.002269   0.025691   0.027407  -0.144848   0.032345
    21  C    0.142746  -0.156216   0.045329  -0.037992   0.027407  -0.132521
    22  C    0.230478   0.146837  -0.175833   0.045329   0.025691  -0.001674
    23  H    0.436384  -0.085123   0.015131  -0.001438   0.000044  -0.000001
    24  H   -0.085123   0.436384  -0.076623   0.015783  -0.000492   0.000009
    25  H    0.015497  -0.081083   0.437784  -0.079286  -0.021983   0.000803
    26  H   -0.000030   0.000609  -0.018690  -0.083092   0.439696  -0.082772
    27  H   -0.000000   0.000000  -0.000041   0.000761  -0.019846  -0.083371
    28  H    0.000000   0.000000   0.000000   0.000000  -0.000047   0.000791
    29  H    0.000000   0.000000  -0.000000   0.000000   0.000000   0.000000
    30  H   -0.000000   0.000000  -0.000000   0.000000  -0.000000  -0.000000
    31  H    0.000000  -0.000000   0.000000  -0.000000   0.000000   0.000000
    32  H    0.000000   0.000000   0.000000   0.000000   0.000000  -0.000000
    33  H    0.000000   0.000000   0.000000  -0.000000   0.000001   0.000002
    34  H    0.000000  -0.000000   0.000001  -0.000004  -0.000371   0.017960
    35  H    0.000609  -0.000030  -0.000301   0.017932  -0.002297   0.017979
    36  H   -0.081083   0.015497  -0.002076   0.017522  -0.000329  -0.000010
               7          8          9         10         11         12
     1  C   -0.000005   0.000000   0.000000  -0.000000  -0.000000   0.000000
     2  C    0.000016  -0.000000  -0.000000   0.000000   0.000000  -0.000000
     3  C   -0.000909   0.000011  -0.000000  -0.000000  -0.000000   0.000000
     4  C    0.020404  -0.001488   0.000012   0.000000  -0.000000   0.000000
     5  C   -0.163797   0.020410  -0.000913   0.000012  -0.000000  -0.000000
     6  C    0.214597   0.144209   0.020410  -0.001488   0.000011  -0.000000
     7  C    5.757612   0.214597  -0.163797   0.020404  -0.000909   0.000016
     8  C    0.214597   5.418786   0.205109   0.143406   0.019262  -0.001339
     9  C   -0.163797   0.205109   5.740777   0.234297  -0.159518   0.019687
    10  C    0.020404   0.143406   0.234297   5.430586   0.196224   0.142746
    11  C   -0.000909   0.019262  -0.159518   0.196224   5.459258   0.230478
    12  C    0.000016  -0.001339   0.019687   0.142746   0.230478   5.245373
    13  C   -0.000005   0.000307  -0.002269  -0.156216   0.146837   0.130953
    14  C    0.000101  -0.001674   0.025691   0.045329  -0.175833   0.146837
    15  C   -0.001698  -0.132521   0.027407  -0.037992   0.045329  -0.156216
    16  C    0.024592   0.032345  -0.144848   0.027407   0.025691  -0.002269
    17  C    0.031505  -0.053112   0.032345  -0.132521  -0.001674   0.000307
    18  C   -0.148226   0.031505   0.024592  -0.001698   0.000101  -0.000005
    19  C    0.031505  -0.132919  -0.001586   0.000263  -0.000003   0.000000
    20  C    0.024592  -0.001586   0.000101  -0.000004   0.000000   0.000000
    21  C   -0.001698   0.000263  -0.000004   0.000000   0.000000  -0.000000
    22  C    0.000101  -0.000003   0.000000   0.000000  -0.000000  -0.000000
    23  H    0.000000   0.000000   0.000000  -0.000000   0.000000  -0.000000
    24  H   -0.000000  -0.000000  -0.000000   0.000000  -0.000000   0.000000
    25  H   -0.000048   0.000000   0.000000   0.000000  -0.000000   0.000000
    26  H   -0.020310   0.000791  -0.000047   0.000000   0.000000   0.000000
    27  H    0.440466  -0.083371  -0.019846   0.000761  -0.000041   0.000000
    28  H   -0.020310  -0.082772   0.439696  -0.083092  -0.018690   0.000609
    29  H   -0.000048   0.000803  -0.021983  -0.079286   0.437784  -0.081083
    30  H   -0.000000   0.000009  -0.000492   0.015783  -0.076623   0.436384
    31  H    0.000000  -0.000001   0.000044  -0.001438   0.015131  -0.085123
    32  H    0.000001  -0.000010  -0.000329   0.017522  -0.002076   0.015497
    33  H   -0.000374   0.017979  -0.002297   0.017932  -0.000301  -0.000030
    34  H   -0.002253   0.017960  -0.000371  -0.000004   0.000001  -0.000000
    35  H   -0.000374   0.000002   0.000001  -0.000000   0.000000   0.000000
    36  H    0.000001  -0.000000   0.000000   0.000000   0.000000   0.000000
              13         14         15         16         17         18
     1  C   -0.000000   0.000000   0.000000  -0.000000  -0.000000   0.000016
     2  C    0.000000  -0.000000  -0.000000   0.000000   0.000000  -0.000005
     3  C   -0.000000  -0.000000   0.000000   0.000000  -0.000003   0.000101
     4  C   -0.000000   0.000000   0.000000  -0.000004   0.000263  -0.001698
     5  C    0.000000   0.000000  -0.000004   0.000101  -0.001586   0.024592
     6  C    0.000000  -0.000003   0.000263  -0.001586  -0.132919   0.031505
     7  C   -0.000005   0.000101  -0.001698   0.024592   0.031505  -0.148226
     8  C    0.000307  -0.001674  -0.132521   0.032345  -0.053112   0.031505
     9  C   -0.002269   0.025691   0.027407  -0.144848   0.032345   0.024592
    10  C   -0.156216   0.045329  -0.037992   0.027407  -0.132521  -0.001698
    11  C    0.146837  -0.175833   0.045329   0.025691  -0.001674   0.000101
    12  C    0.130953   0.146837  -0.156216  -0.002269   0.000307  -0.000005
    13  C    5.245373   0.230478   0.142746   0.019687  -0.001339   0.000016
    14  C    0.230478   5.459258   0.196224  -0.159518   0.019262  -0.000909
    15  C    0.142746   0.196224   5.430586   0.234297   0.143406   0.020404
    16  C    0.019687  -0.159518   0.234297   5.740777   0.205109  -0.163797
    17  C   -0.001339   0.019262   0.143406   0.205109   5.418786   0.214597
    18  C    0.000016  -0.000909   0.020404  -0.163797   0.214597   5.757612
    19  C   -0.000000   0.000011  -0.001488   0.020410   0.144209   0.214597
    20  C   -0.000000  -0.000000   0.000012  -0.000913   0.020410  -0.163797
    21  C    0.000000  -0.000000   0.000000   0.000012  -0.001488   0.020404
    22  C    0.000000  -0.000000  -0.000000  -0.000000   0.000011  -0.000909
    23  H    0.000000  -0.000000   0.000000  -0.000000  -0.000000  -0.000000
    24  H   -0.000000   0.000000  -0.000000   0.000000   0.000000   0.000000
    25  H    0.000000   0.000000   0.000000   0.000000  -0.000000   0.000001
    26  H    0.000000   0.000000  -0.000000   0.000001   0.000002  -0.000374
    27  H   -0.000000   0.000001  -0.000004  -0.000371   0.017960  -0.002253
    28  H   -0.000030  -0.000301   0.017932  -0.002297   0.017979  -0.000374
    29  H    0.015497  -0.002076   0.017522  -0.000329  -0.000010   0.000001
    30  H   -0.085123   0.015131  -0.001438   0.000044  -0.000001   0.000000
    31  H    0.436384  -0.076623   0.015783  -0.000492   0.000009  -0.000000
    32  H   -0.081083   0.437784  -0.079286  -0.021983   0.000803  -0.000048
    33  H    0.000609  -0.018690  -0.083092   0.439696  -0.082772  -0.020310
    34  H    0.000000  -0.000041   0.000761  -0.019846  -0.083371   0.440466
    35  H    0.000000   0.000000   0.000000  -0.000047   0.000791  -0.020310
    36  H    0.000000  -0.000000   0.000000   0.000000   0.000000  -0.000048
              19         20         21         22         23         24
     1  C   -0.001339   0.019687   0.142746   0.230478   0.436384  -0.085123
     2  C    0.000307  -0.002269  -0.156216   0.146837  -0.085123   0.436384
     3  C   -0.001674   0.025691   0.045329  -0.175833   0.015131  -0.076623
     4  C   -0.132521   0.027407  -0.037992   0.045329  -0.001438   0.015783
     5  C    0.032345  -0.144848   0.027407   0.025691   0.000044  -0.000492
     6  C   -0.053112   0.032345  -0.132521  -0.001674  -0.000001   0.000009
     7  C    0.031505   0.024592  -0.001698   0.000101   0.000000  -0.000000
     8  C   -0.132919  -0.001586   0.000263  -0.000003   0.000000  -0.000000
     9  C   -0.001586   0.000101  -0.000004   0.000000   0.000000  -0.000000
    10  C    0.000263  -0.000004   0.000000   0.000000  -0.000000   0.000000
    11  C   -0.000003   0.000000   0.000000  -0.000000   0.000000  -0.000000
    12  C    0.000000   0.000000  -0.000000  -0.000000  -0.000000   0.000000
    13  C   -0.000000  -0.000000   0.000000   0.000000   0.000000  -0.000000
    14  C    0.000011  -0.000000  -0.000000  -0.000000  -0.000000   0.000000
    15  C   -0.001488   0.000012   0.000000  -0.000000   0.000000  -0.000000
    16  C    0.020410  -0.000913   0.000012  -0.000000  -0.000000   0.000000
    17  C    0.144209   0.020410  -0.001488   0.000011  -0.000000   0.000000
    18  C    0.214597  -0.163797   0.020404  -0.000909  -0.000000   0.000000
    19  C    5.418786   0.205109   0.143406   0.019262   0.000009  -0.000001
    20  C    0.205109   5.740777   0.234297  -0.159518  -0.000492   0.000044
    21  C    0.143406   0.234297   5.430586   0.196224   0.015783  -0.001438
    22  C    0.019262  -0.159518   0.196224   5.459258  -0.076623   0.015131
    23  H    0.000009  -0.000492   0.015783  -0.076623   0.669237  -0.012412
    24  H   -0.000001   0.000044  -0.001438   0.015131  -0.012412   0.669237
    25  H   -0.000010  -0.000329   0.017522  -0.002076  -0.000316  -0.012473
    26  H    0.017979  -0.002297   0.017932  -0.000301  -0.000001  -0.000014
    27  H    0.017960  -0.000371  -0.000004   0.000001   0.000000  -0.000000
    28  H    0.000002   0.000001  -0.000000   0.000000  -0.000000  -0.000000
    29  H   -0.000000   0.000000   0.000000   0.000000   0.000000  -0.000000
    30  H    0.000000   0.000000  -0.000000   0.000000   0.000000  -0.000000
    31  H   -0.000000  -0.000000   0.000000  -0.000000  -0.000000   0.000000
    32  H    0.000000   0.000000   0.000000  -0.000000  -0.000000   0.000000
    33  H    0.000791  -0.000047   0.000000   0.000000  -0.000000  -0.000000
    34  H   -0.083371  -0.019846   0.000761  -0.000041  -0.000000   0.000000
    35  H   -0.082772   0.439696  -0.083092  -0.018690  -0.000014  -0.000001
    36  H    0.000803  -0.021983  -0.079286   0.437784  -0.012473  -0.000316
              25         26         27         28         29         30
     1  C    0.015497  -0.000030  -0.000000   0.000000   0.000000  -0.000000
     2  C   -0.081083   0.000609   0.000000   0.000000   0.000000   0.000000
     3  C    0.437784  -0.018690  -0.000041   0.000000  -0.000000  -0.000000
     4  C   -0.079286  -0.083092   0.000761   0.000000   0.000000   0.000000
     5  C   -0.021983   0.439696  -0.019846  -0.000047   0.000000  -0.000000
     6  C    0.000803  -0.082772  -0.083371   0.000791   0.000000  -0.000000
     7  C   -0.000048  -0.020310   0.440466  -0.020310  -0.000048  -0.000000
     8  C    0.000000   0.000791  -0.083371  -0.082772   0.000803   0.000009
     9  C    0.000000  -0.000047  -0.019846   0.439696  -0.021983  -0.000492
    10  C    0.000000   0.000000   0.000761  -0.083092  -0.079286   0.015783
    11  C   -0.000000   0.000000  -0.000041  -0.018690   0.437784  -0.076623
    12  C    0.000000   0.000000   0.000000   0.000609  -0.081083   0.436384
    13  C    0.000000   0.000000  -0.000000  -0.000030   0.015497  -0.085123
    14  C    0.000000   0.000000   0.000001  -0.000301  -0.002076   0.015131
    15  C    0.000000  -0.000000  -0.000004   0.017932   0.017522  -0.001438
    16  C    0.000000   0.000001  -0.000371  -0.002297  -0.000329   0.000044
    17  C   -0.000000   0.000002   0.017960   0.017979  -0.000010  -0.000001
    18  C    0.000001  -0.000374  -0.002253  -0.000374   0.000001   0.000000
    19  C   -0.000010   0.017979   0.017960   0.000002  -0.000000   0.000000
    20  C   -0.000329  -0.002297  -0.000371   0.000001   0.000000   0.000000
    21  C    0.017522   0.017932  -0.000004  -0.000000   0.000000  -0.000000
    22  C   -0.002076  -0.000301   0.000001   0.000000   0.000000   0.000000
    23  H   -0.000316  -0.000001   0.000000  -0.000000   0.000000   0.000000
    24  H   -0.012473  -0.000014  -0.000000  -0.000000  -0.000000  -0.000000
    25  H    0.677394   0.007461  -0.000000  -0.000000   0.000000  -0.000000
    26  H    0.007461   0.685482   0.007723  -0.000001  -0.000000  -0.000000
    27  H   -0.000000   0.007723   0.685499   0.007723  -0.000000  -0.000000
    28  H   -0.000000  -0.000001   0.007723   0.685482   0.007461  -0.000014
    29  H    0.000000  -0.000000  -0.000000   0.007461   0.677394  -0.012473
    30  H   -0.000000  -0.000000  -0.000000  -0.000014  -0.012473   0.669237
    31  H    0.000000  -0.000000   0.000000  -0.000001  -0.000316  -0.012412
    32  H   -0.000000  -0.000000   0.000000   0.000012   0.000036  -0.000316
    33  H   -0.000000   0.000000   0.000012   0.000035   0.000012  -0.000001
    34  H    0.000000   0.000012   0.000035   0.000012   0.000000   0.000000
    35  H    0.000012   0.000035   0.000012   0.000000  -0.000000  -0.000000
    36  H    0.000036   0.000012   0.000000  -0.000000  -0.000000   0.000000
              31         32         33         34         35         36
     1  C    0.000000   0.000000   0.000000   0.000000   0.000609  -0.081083
     2  C   -0.000000   0.000000   0.000000  -0.000000  -0.000030   0.015497
     3  C    0.000000   0.000000   0.000000   0.000001  -0.000301  -0.002076
     4  C   -0.000000   0.000000  -0.000000  -0.000004   0.017932   0.017522
     5  C    0.000000   0.000000   0.000001  -0.000371  -0.002297  -0.000329
     6  C    0.000000  -0.000000   0.000002   0.017960   0.017979  -0.000010
     7  C    0.000000   0.000001  -0.000374  -0.002253  -0.000374   0.000001
     8  C   -0.000001  -0.000010   0.017979   0.017960   0.000002  -0.000000
     9  C    0.000044  -0.000329  -0.002297  -0.000371   0.000001   0.000000
    10  C   -0.001438   0.017522   0.017932  -0.000004  -0.000000   0.000000
    11  C    0.015131  -0.002076  -0.000301   0.000001   0.000000   0.000000
    12  C   -0.085123   0.015497  -0.000030  -0.000000   0.000000   0.000000
    13  C    0.436384  -0.081083   0.000609   0.000000   0.000000   0.000000
    14  C   -0.076623   0.437784  -0.018690  -0.000041   0.000000  -0.000000
    15  C    0.015783  -0.079286  -0.083092   0.000761   0.000000   0.000000
    16  C   -0.000492  -0.021983   0.439696  -0.019846  -0.000047   0.000000
    17  C    0.000009   0.000803  -0.082772  -0.083371   0.000791   0.000000
    18  C   -0.000000  -0.000048  -0.020310   0.440466  -0.020310  -0.000048
    19  C   -0.000000   0.000000   0.000791  -0.083371  -0.082772   0.000803
    20  C   -0.000000   0.000000  -0.000047  -0.019846   0.439696  -0.021983
    21  C    0.000000   0.000000   0.000000   0.000761  -0.083092  -0.079286
    22  C   -0.000000  -0.000000   0.000000  -0.000041  -0.018690   0.437784
    23  H   -0.000000  -0.000000  -0.000000  -0.000000  -0.000014  -0.012473
    24  H    0.000000   0.000000  -0.000000   0.000000  -0.000001  -0.000316
    25  H    0.000000  -0.000000  -0.000000   0.000000   0.000012   0.000036
    26  H   -0.000000  -0.000000   0.000000   0.000012   0.000035   0.000012
    27  H    0.000000   0.000000   0.000012   0.000035   0.000012   0.000000
    28  H   -0.000001   0.000012   0.000035   0.000012   0.000000  -0.000000
    29  H   -0.000316   0.000036   0.000012   0.000000  -0.000000  -0.000000
    30  H   -0.012412  -0.000316  -0.000001   0.000000  -0.000000   0.000000
    31  H    0.669237  -0.012473  -0.000014  -0.000000  -0.000000  -0.000000
    32  H   -0.012473   0.677394   0.007461  -0.000000  -0.000000   0.000000
    33  H   -0.000014   0.007461   0.685482   0.007723  -0.000001  -0.000000
    34  H   -0.000000  -0.000000   0.007723   0.685499   0.007723  -0.000000
    35  H   -0.000000  -0.000000  -0.000001   0.007723   0.685482   0.007461
    36  H   -0.000000   0.000000  -0.000000  -0.000000   0.007461   0.677394
 Mulliken charges:
               1
     1  C   -0.042821
     2  C   -0.042821
     3  C   -0.140439
     4  C    0.201064
     5  C   -0.251867
     6  C    0.223042
     7  C   -0.255750
     8  C    0.223042
     9  C   -0.251867
    10  C    0.201064
    11  C   -0.140439
    12  C   -0.042821
    13  C   -0.042821
    14  C   -0.140439
    15  C    0.201064
    16  C   -0.251867
    17  C    0.223042
    18  C   -0.255750
    19  C    0.223042
    20  C   -0.251867
    21  C    0.201064
    22  C   -0.140439
    23  H    0.052304
    24  H    0.052304
    25  H    0.041095
    26  H    0.030192
    27  H    0.030608
    28  H    0.030192
    29  H    0.041095
    30  H    0.052304
    31  H    0.052304
    32  H    0.041095
    33  H    0.030192
    34  H    0.030608
    35  H    0.030192
    36  H    0.041095
 Sum of Mulliken charges =  -0.00000
 Mulliken charges with hydrogens summed into heavy atoms:
               1
     1  C    0.009483
     2  C    0.009483
     3  C   -0.099344
     4  C    0.201064
     5  C   -0.221675
     6  C    0.223042
     7  C   -0.225141
     8  C    0.223042
     9  C   -0.221675
    10  C    0.201064
    11  C   -0.099344
    12  C    0.009483
    13  C    0.009483
    14  C   -0.099344
    15  C    0.201064
    16  C   -0.221675
    17  C    0.223042
    18  C   -0.225141
    19  C    0.223042
    20  C   -0.221675
    21  C    0.201064
    22  C   -0.099344
 Electronic spatial extent (au):  <R**2>=           9255.5103
 Charge=             -0.0000 electrons
 Dipole moment (field-independent basis, Debye):
    X=             -0.0000    Y=             -0.0000    Z=             -0.0000  Tot=              0.0000
 Quadrupole moment (field-independent basis, Debye-Ang):
   XX=           -110.3855   YY=           -112.4806   ZZ=           -134.8033
   XY=             -0.0000   XZ=             -0.0000   YZ=              0.0000
 Traceless Quadrupole moment (field-independent basis, Debye-Ang):
   XX=              8.8377   YY=              6.7425   ZZ=            -15.5802
   XY=             -0.0000   XZ=             -0.0000   YZ=              0.0000
 Octapole moment (field-independent basis, Debye-Ang**2):
  XXX=              0.0000  YYY=             -0.0000  ZZZ=             -0.0000  XYY=             -0.0000
  XXY=             -0.0000  XXZ=             -0.0000  XZZ=              0.0000  YZZ=             -0.0000
  YYZ=             -0.0000  XYZ=              0.0000
 Hexadecapole moment (field-independent basis, Debye-Ang**3):
 XXXX=         -10551.5494 YYYY=          -1112.4647 ZZZZ=           -148.7722 XXXY=              0.0000
 XXXZ=             -0.0000 YYYX=              0.0000 YYYZ=              0.0000 ZZZX=             -0.0000
 ZZZY=              0.0000 XXYY=          -1982.1030 XXZZ=          -2173.2605 YYZZ=           -246.3787
 XXYZ=              0.0000 YYXZ=             -0.0000 ZZXY=              0.0000
 N-N= 1.500955720360D+03 E-N=-4.959789370671D+03  KE= 8.377716879237D+02
 Symmetry AG   KE= 2.242764144501D+02
 Symmetry B1G  KE= 1.825433016568D+02
 Symmetry B2G  KE= 6.247022126362D+00
 Symmetry B3G  KE= 6.932112928380D+00
 Symmetry AU   KE= 4.555992487423D+00
 Symmetry B1U  KE= 5.887143415560D+00
 Symmetry B2U  KE= 2.165913810129D+02
 Symmetry B3U  KE= 1.907383198463D+02
   8 Symmetry operations used in ECPInt.
 ECPInt:  NShTT=   12880 NPrTT=   51688 LenC2=   11205 LenP2D=   30447.
 LDataN:  DoStor=T MaxTD1= 5 Len=  102
 Calling FoFJK, ICntrl=      2127 FMM=F ISym2X=1 I1Cent= 0 IOpClX= 0 NMat=1 NMatS=1 NMatT=0.
 ***** Axes restored to original set *****
 -------------------------------------------------------------------
 Center     Atomic                   Forces (Hartrees/Bohr)
 Number     Number              X              Y              Z
 -------------------------------------------------------------------
      1        6          -0.019481900    0.026131072   -0.018915561
      2        6          -0.019892639   -0.026678853    0.017683255
      3        6           0.037155024    0.001941462    0.000175127
      4        6          -0.022062581   -0.025223530    0.016585367
      5        6           0.010714402    0.002391958   -0.001219779
      6        6          -0.005180124   -0.030685710    0.021063774
      7        6           0.000008563    0.001100959   -0.000762997
      8        6           0.004703866   -0.030548204    0.021373113
      9        6          -0.010679509    0.002094325   -0.001889345
     10        6           0.021674952   -0.024615051    0.017954222
     11        6          -0.037132863    0.000907964   -0.002149863
     12        6           0.019481900   -0.026131072    0.018915561
     13        6           0.019892639    0.026678853   -0.017683255
     14        6          -0.037155024   -0.001941462   -0.000175127
     15        6           0.022062581    0.025223530   -0.016585367
     16        6          -0.010714402   -0.002391958    0.001219779
     17        6           0.005180124    0.030685710   -0.021063774
     18        6          -0.000008563   -0.001100959    0.000762997
     19        6          -0.004703866    0.030548204   -0.021373113
     20        6           0.010679509   -0.002094325    0.001889345
     21        6          -0.021674952    0.024615051   -0.017954222
     22        6           0.037132863   -0.000907964    0.002149863
     23        1           0.003971148    0.002706665   -0.001714070
     24        1           0.003929899   -0.002596746    0.001961349
     25        1          -0.002500898   -0.003662136    0.002436739
     26        1          -0.000073290   -0.002973926    0.002058964
     27        1          -0.000021961   -0.002823552    0.001956804
     28        1           0.000027041   -0.002972530    0.002062104
     29        1           0.002444467   -0.003593336    0.002591514
     30        1          -0.003971148   -0.002706665    0.001714070
     31        1          -0.003929899    0.002596746   -0.001961349
     32        1           0.002500898    0.003662136   -0.002436739
     33        1           0.000073290    0.002973926   -0.002058964
     34        1           0.000021961    0.002823552   -0.001956804
     35        1          -0.000027041    0.002972530   -0.002062104
     36        1          -0.002444467    0.003593336   -0.002591514
 -------------------------------------------------------------------
 Cartesian Forces:  Max     0.037155024 RMS     0.014666908

 GradGradGradGradGradGradGradGradGradGradGradGradGradGradGradGradGradGrad
 Berny optimization.
 FormGI is forming the generalized inverse of G from B-inverse, IUseBI=4.
 Internal  Forces:  Max     0.041048640 RMS     0.007338369
 Search for a local minimum.
 Step number   1 out of a maximum of  216
 All quantities printed in internal units (Hartrees-Bohrs-Radians)
 Mixed Optimization -- RFO/linear search
 Second derivative matrix not updated -- first step.
 ITU=  0
     Eigenvalues ---    0.01992   0.01993   0.02001   0.02004   0.02005
     Eigenvalues ---    0.02005   0.02006   0.02007   0.02009   0.02010
     Eigenvalues ---    0.02010   0.02012   0.02021   0.02021   0.02021
     Eigenvalues ---    0.02023   0.02023   0.02023   0.02023   0.02023
     Eigenvalues ---    0.02023   0.02082   0.02082   0.02083   0.02083
     Eigenvalues ---    0.02084   0.02084   0.02162   0.02162   0.02165
     Eigenvalues ---    0.02165   0.02180   0.02180   0.16000   0.16000
     Eigenvalues ---    0.16000   0.16000   0.16000   0.16000   0.16000
     Eigenvalues ---    0.16000   0.16000   0.16000   0.16000   0.16000
     Eigenvalues ---    0.16000   0.16000   0.22000   0.22000   0.22491
     Eigenvalues ---    0.22517   0.22960   0.23246   0.23436   0.23737
     Eigenvalues ---    0.23914   0.24173   0.24558   0.24584   0.25000
     Eigenvalues ---    0.25000   0.25000   0.34965   0.34965   0.34991
     Eigenvalues ---    0.34991   0.34991   0.34991   0.35088   0.35088
     Eigenvalues ---    0.35088   0.35088   0.35187   0.35187   0.35187
     Eigenvalues ---    0.35187   0.36949   0.38521   0.40350   0.40734
     Eigenvalues ---    0.40813   0.41144   0.41499   0.41543   0.42853
     Eigenvalues ---    0.43857   0.44441   0.44549   0.44626   0.44673
     Eigenvalues ---    0.44785   0.44785   0.44801   0.44801   0.44806
     Eigenvalues ---    0.44806   0.45699   0.45699   0.45749   0.45750
     Eigenvalues ---    0.46685   0.46685
 RFO step:  Lambda=-2.44903843D-02 EMin= 1.99227459D-02
 Linear search not attempted -- first point.
[...]
 283,0.00001474,-0.00002639,-0.00000773,-0.00000788,0.00000029,-0.00000
 539,-0.00000094,0.00000018,0.00000112,-0.00000109,0.00000035,-0.000000
 49,0.00000042,0.00000091,0.00000009,0.00000086,0.00000056,0.00000074,0
 .00000399,-0.00000257,0.00000099,0.00003209,0.00000750,0.00004970,-0.0
 0073996,0.00036242,-0.00009890,0.00034380,-0.00163364,-0.00102207,0.08
 051599,-0.05069051,0.06386544,0.00001111,0.00000173,-0.00000070,-0.000
 00641,0.00000852,-0.00000616,-0.00000064,-0.00000112,0.00000079,-0.000
 00988,0.00000855,-0.00000624,-0.00000621,-0.00000090,0.00000043,-0.000
 01445,0.00000807,-0.00000568,-0.00005147,-0.00003218,0.00001893,0.0002
 0704,0.00004684,-0.00001551,0.00043938,0.00112857,-0.00076998,-0.00456
 352,0.00059897,-0.00077005,-0.00069179,-0.00002592,0.00001249,-0.00428
 378,-0.00135013,0.00040514,0.00403038,-0.02379407,0.01644880,-0.057755
 91,-0.00109685,-0.00007223,0.00332062,0.02217375,-0.01538795,0.0013818
 7,0.00133344,-0.00076885,0.00015631,-0.00036653,0.00026811,-0.00005351
 ,0.00002268,-0.00002276,0.00004230,-0.00001810,0.00001418,-0.00000978,
 0.00000496,-0.00000330,0.00002003,-0.00000319,0.00000312,-0.00000615,-
 0.00000325,0.00000191,0.00000034,-0.00000007,0.00000006,0.00000112,-0.
 00000058,0.00000042,-0.00000065,-0.00000015,0.00000005,0.00000024,0.00
 000003,-0.00000008,0.00001526,-0.00001653,0.00001121,-0.00033964,0.000
 16239,-0.00013773,0.00011384,0.00001697,0.00004221,0.00004314,-0.00107
 199,0.00073755,0.00120636,0.00048963,-0.00005614,0.05724366,0.00000926
 ,-0.00001410,0.00000936,0.00002261,0.00000452,-0.00000243,-0.00001268,
 0.00001632,-0.00001246,0.00003138,0.00000337,-0.00000258,-0.00002298,0
 .00002029,-0.00001605,0.00006394,0.00000975,-0.00001268,-0.00003534,0.
 00007455,-0.00003155,-0.00001942,0.00005008,-0.00017921,-0.00051286,-0
 .00042191,0.00036432,0.00208686,0.00199151,0.00154823,0.00013903,0.000
 32114,-0.00060378,-0.00282651,0.00333208,0.00359552,0.00223506,-0.0066
 0787,0.00829321,-0.00153543,-0.23802414,0.13902752,-0.00183140,-0.0066
 9095,0.00710082,-0.00155130,-0.00030240,-0.00153212,0.00035602,0.00014
 345,-0.00021316,-0.00008721,-0.00005287,0.00011516,0.00005872,0.000005
 67,0.00000015,-0.00003462,-0.00003852,0.00001615,0.00001849,-0.0000079
 7,0.00000476,-0.00001362,-0.00001505,0.00001145,0.00000516,0.00000126,
 -0.00000052,0.00000392,-0.00000037,0.00000091,-0.00000015,-0.00000346,
 0.00000293,0.00000002,-0.00000419,0.00000405,-0.00001846,0.00000414,0.
 00001127,0.00015033,0.00001223,0.00018775,0.00003118,-0.00046697,-0.00
 051002,0.00013696,-0.00037451,0.00039194,-0.00000978,-0.00121215,-0.00
 312179,0.00247793,0.24781148,-0.00000592,0.00000905,-0.00000766,-0.000
 01593,-0.00000301,0.00000111,0.00000880,-0.00001198,0.00000777,-0.0000
 2207,-0.00000351,-0.00000067,0.00001574,-0.00001515,0.00000965,-0.0000
 4442,-0.00001496,-0.00000376,0.00002112,-0.00003143,0.00005378,0.00003
 043,-0.00017650,-0.00008363,0.00036810,0.00043153,-0.00015030,-0.00180
 168,0.00148731,0.00299626,-0.00010188,-0.00061054,-0.00013874,0.001428
 78,0.00365596,0.00620837,-0.00159843,0.00722750,0.00014464,0.00023186,
 0.13904548,-0.13381448,0.00125596,0.00808366,-0.00189481,0.00123127,-0
 .00141401,-0.00138972,-0.00023287,-0.00024274,-0.00002624,0.00005343,0
 .00011965,0.00003760,-0.00003908,-0.00000300,0.00000290,0.00002414,0.0
 0001777,-0.00002452,-0.00001191,0.00000387,-0.00000537,0.00000910,0.00
 001188,-0.00000559,-0.00000357,-0.00000074,0.00000056,-0.00000270,0.00
 000072,0.00000009,0.00000005,0.00000293,-0.00000125,-0.00000007,0.0000
 0406,-0.00000115,0.00001254,0.00001135,0.00001414,-0.00012936,0.000188
 24,0.00013833,0.00003236,-0.00051060,-0.00084905,-0.00010067,0.0003424
 4,-0.00005887,0.00029013,-0.00310134,-0.00355188,-0.00040238,-0.154308
 72,0.13208217,0.00002445,0.00000100,0.00000045,-0.00001939,0.00002347,
 -0.00001688,-0.00000577,-0.00001297,0.00000888,-0.00001710,0.00002866,
 -0.00001994,-0.00006133,-0.00004670,0.00002803,0.00021016,0.00007127,-
 0.00003060,0.00041039,0.00109276,-0.00074613,-0.00444324,0.00054494,-0
 .00076321,-0.00070434,0.00001157,-0.00001364,-0.00439687,-0.00097195,0
 .00022518,0.00038906,-0.00104213,0.00073405,0.00014214,-0.00013592,0.0
 0011057,0.00017595,0.00036411,-0.00024319,0.00116482,-0.00136316,0.001
 18113,0.00340997,-0.02255597,0.01557712,-0.05772638,-0.00151513,0.0001
 7533,0.00349305,0.02226887,-0.01546839,0.00127292,0.00144163,-0.000816
 05,0.00017715,-0.00038134,0.00027939,-0.00005903,0.00002139,-0.0000251
 7,0.00005068,-0.00001713,0.00001386,-0.00001183,0.00000032,0.00000035,
 -0.00000057,-0.00000133,0.00000059,0.00000063,-0.00000127,0.00000086,0
 .00000024,0.00000002,-0.00000007,0.00001547,-0.00001668,0.00001121,-0.
 00033176,0.00015757,-0.00013662,0.00005370,0.00001988,0.00003635,-0.00
 034484,-0.00017163,0.00009365,-0.00002157,0.00004850,-0.00003671,0.000
 01205,0.00000377,-0.00001524,-0.00040661,0.00066890,-0.00048815,0.0580
 1795,0.00000764,-0.00003385,0.00002142,0.00004391,0.00000464,-0.000004
 46,-0.00002406,0.00002435,-0.00001995,0.00007381,0.00000669,-0.0000122
 9,-0.00003388,0.00007462,-0.00002201,0.00000624,0.00005156,-0.00020844
 ,-0.00051621,-0.00045640,0.00038457,0.00212228,0.00236513,0.00189239,0
 .00001120,0.00022734,-0.00055044,-0.00256596,0.00278899,0.00251142,0.0
 0051927,-0.00046474,0.00041860,-0.00003476,0.00004989,-0.00021404,-0.0
 0022828,0.00001316,-0.00005349,0.00195093,-0.00096482,-0.00243992,0.00
 128400,-0.00738616,0.00858809,-0.00168654,-0.23606653,0.13840343,-0.00
 159229,-0.00667574,0.00746486,-0.00163881,-0.00057003,-0.00189683,0.00
 034209,0.00012142,-0.00020120,-0.00008483,-0.00002310,0.00014668,0.000
 04502,-0.00001797,0.00001579,-0.00002782,-0.00002963,0.00000150,0.0000
 0674,0.00000392,0.00000273,0.00000426,0.00000053,0.00000056,0.00000003
 ,-0.00000419,0.00000406,-0.00001668,0.00000380,0.00001349,0.00015241,0
 .00002743,0.00022068,0.00002473,-0.00049295,-0.00046885,-0.00018369,0.
 00000294,0.00018052,-0.00002705,0.00004489,0.00000492,-0.00005878,0.00
 009041,0.00015707,-0.00069177,0.00041004,-0.00018188,0.00215363,0.2464
 3447,-0.00000416,0.00002114,-0.00001824,-0.00003106,-0.00000530,-0.000
 00199,0.00001657,-0.00001950,0.00001119,-0.00005124,-0.00001414,-0.000
 00769,0.00001914,-0.00002254,0.00006129,0.00001449,-0.00020578,-0.0001
 0617,0.00036944,0.00045045,-0.00016845,-0.00185685,0.00182780,0.003625
 83,-0.00001338,-0.00055043,-0.00018612,0.00133039,0.00257669,0.0048306
 2,-0.00034854,0.00035467,-0.00015185,0.00004043,-0.00021819,-0.0001038
 4,0.00016755,-0.00002924,-0.00002338,-0.00111668,-0.00257560,-0.002858
 99,-0.00095227,0.00761201,-0.00039233,0.00029418,0.13841045,-0.1323052
 2,0.00107569,0.00844181,-0.00162438,0.00131977,-0.00177070,-0.00192726
 ,-0.00022220,-0.00023082,-0.00003803,0.00004848,0.00015102,0.00009073,
 -0.00002922,0.00001324,-0.00000824,0.00001987,0.00000265,-0.00002685,-
 0.00000500,0.00000240,0.00000560,-0.00000297,0.00000034,0.00000074,-0.
 00000008,0.00000405,-0.00000115,0.00001121,0.00001349,0.00001534,-0.00
 013304,0.00022089,0.00017811,0.00003298,-0.00046905,-0.00084406,0.0001
 0202,0.00018101,0.00015282,0.00001568,0.00000801,0.00004867,0.00002813
 ,0.00015963,0.00021089,0.00045527,-0.00012617,0.00029469,-0.00010659,-
 0.15403174,0.13094387,0.00004964,-0.00000773,0.00000756,-0.00003888,0.
 00005424,-0.00003836,-0.00005523,-0.00006630,0.00004150,0.00020594,0.0
 0010625,-0.00005466,0.00039287,0.00107251,-0.00073271,-0.00438151,0.00
 056561,-0.00080508,-0.00071109,0.00000463,-0.00000782,-0.00442891,-0.0
 0089537,0.00020595,0.00038415,-0.00107445,0.00075552,0.00020420,-0.000
 08873,0.00008045,-0.00005370,0.00006391,-0.00004872,-0.00004119,-0.000
 05449,0.00003694,0.00004956,0.00000819,-0.00000348,-0.00005279,-0.0000
 1839,-0.00000031,0.00018289,0.00039123,-0.00025704,0.00122647,-0.00131
 343,0.00111754,0.00330678,-0.02251992,0.01556267,-0.05774666,-0.001858
 20,0.00040068,0.00363302,0.02230988,-0.01550660,0.00122070,0.00150164,
 -0.00083452,0.00018166,-0.00037773,0.00027607,-0.00005348,0.00000585,-
 0.00001714,0.00000294,-0.00000349,0.00000368,-0.00000146,-0.00000579,0
 .00000399,0.00001526,-0.00001846,0.00001254,-0.00033176,0.00015241,-0.
 00013304,0.00006004,0.00002289,0.00003560,-0.00033695,-0.00017596,0.00
 009442,0.00001580,0.00001803,-0.00001273,-0.00000146,0.00000584,-0.000
 00407,0.00000283,0.00000467,-0.00000198,-0.00002948,0.00001442,-0.0000
 1128,-0.00043736,0.00065061,-0.00047772,0.05803396,0.00001323,-0.00007
 077,0.00004675,0.00009377,0.,-0.00001041,-0.00003442,0.00009238,-0.000
 02809,0.00002327,0.00004116,-0.00020661,-0.00051428,-0.00045976,0.0003
 8526,0.00215216,0.00262643,0.00222157,0.00000463,0.00019834,-0.0005522
 5,-0.00248192,0.00254165,0.00209062,0.00051234,-0.00047534,0.00043810,
 -0.00000575,0.00003804,-0.00020564,0.00003202,0.00009512,-0.00002726,-
 0.00009402,-0.00000412,-0.00001524,-0.00001277,-0.00007091,0.00004578,
 0.00005003,0.00003167,0.00016463,-0.00029862,0.00008448,-0.00018483,0.
 00187255,-0.00075335,-0.00205392,0.00133543,-0.00727616,0.00826373,-0.
 00185820,-0.23622384,0.13870347,-0.00154547,-0.00669263,0.00774119,-0.
 00168434,-0.00076367,-0.00219239,0.00031213,0.00008228,-0.00015830,-0.
 00006257,0.00003044,0.00016087,0.00001219,-0.00000729,-0.00001382,0.00
 000601,0.00000310,-0.00000257,-0.00001653,0.00000414,0.00001135,0.0001
 5757,0.00002743,0.00022089,0.00002289,-0.00050251,-0.00048077,-0.00018
 112,0.00001815,0.00021346,0.00001611,0.00000511,0.00001202,-0.00000596
 ,0.00000309,-0.00000305,-0.00001101,-0.00000750,-0.00001462,-0.0000097
 9,0.00001419,-0.00000907,-0.00067368,0.00042038,-0.00017155,0.00220620
 ,0.24651560,-0.00000697,0.00004589,-0.00003623,-0.00006576,-0.00001203
 ,-0.00001491,0.00001939,-0.00002939,0.00007508,0.00000287,-0.00020322,
 -0.00011720,0.00036749,0.00045023,-0.00017085,-0.00190511,0.00215661,0
 .00413018,-0.00000782,-0.00055225,-0.00021584,0.00130598,0.00215558,0.
 00426237,-0.00034467,0.00037313,-0.00014656,0.00002292,-0.00020904,-0.
 00011234,-0.00002661,-0.00002596,0.00007082,0.00006434,-0.00001362,-0.
 00000847,0.00001105,0.00004664,-0.00003601,-0.00004775,0.00016183,0.00
 015200,0.00022127,-0.00015659,-0.00004684,-0.00109145,-0.00218436,-0.0
 0235641,-0.00097737,0.00728702,-0.00052888,0.00040068,0.13870347,-0.13
 221845,0.00103345,0.00871789,-0.00143864,0.00137447,-0.00206195,-0.002
 34032,-0.00020224,-0.00018655,-0.00004341,0.00003030,0.00016367,0.0001
 5391,-0.00000718,-0.00001446,-0.00001820,-0.00000419,-0.00000305,0.000
 00099,0.00001121,0.00001127,0.00001414,-0.00013662,0.00022068,0.000178
 11,0.00003561,-0.00048077,-0.00086246,0.00009800,0.00021367,0.00019258
 ,-0.00001140,0.00001210,0.00001264,0.00000411,-0.00000257,0.00000099,0
 .00000889,-0.00001398,-0.00001788,0.00000551,-0.00000808,0.00000751,0.
 00044048,-0.00011733,0.00031213,-0.00013187,-0.15426395,0.13084694,0.0
 0017395,-0.00035688,0.00025663,0.00014505,0.00015187,-0.00008884,0.000
 39718,0.00104125,-0.00071012,-0.00434747,0.00060972,-0.00086944,-0.000
 70456,-0.00000304,-0.00000352,-0.00448945,-0.00084860,0.00020111,0.000
 40140,-0.00109428,0.00076988,0.00020922,-0.00005383,0.00005610,-0.0000
 6012,0.00004424,-0.00003498,-0.00001869,-0.00002841,0.00001956,-0.0000
 0519,0.00001333,-0.00000933,-0.00002044,-0.00002377,0.00001582,0.00002
 432,-0.00000070,0.00000162,-0.00001139,0.00000003,0.00000057,0.0000502
 6,0.00001816,-0.00001062,-0.00005821,-0.00003176,0.00001172,0.00017800
 ,0.00039638,-0.00025980,0.00127856,-0.00127574,0.00106826,0.00316838,-
 0.02246607,0.01553518,-0.05773415,-0.00218610,0.00064023,0.00373734,0.
 02233147,-0.01553207,0.00115905,0.00157988,-0.00085965,0.00001271,-0.0
 0001590,-0.00000157,-0.00002194,-0.00005074,0.00003209,-0.00033964,0.0
 0015033,-0.00012936,0.00005370,0.00002473,0.00003298,-0.00033695,-0.00
 018112,0.00009800,0.00001598,0.00001613,-0.00001152,0.00000024,-0.0000
 0015,0.00000005,0.00000058,0.00000124,-0.00000088,-0.00000065,0.000001
 05,-0.00000106,-0.00000306,0.00000206,-0.00000171,-0.00002972,0.000012
 42,-0.00000986,-0.00043723,0.00065883,-0.00048341,0.05801939,0.0002355
 1,0.00000958,-0.00003203,0.00005070,0.00005508,-0.00021414,-0.00052014
 ,-0.00045022,0.00036597,0.00220374,0.00287734,0.00264545,-0.00000266,0
 .00022694,-0.00055074,-0.00242593,0.00228248,0.00176348,0.00051469,-0.
 00047248,0.00043793,0.00001121,0.00004989,-0.00020708,0.00003142,0.000
 07680,-0.00002085,-0.00007355,0.00000385,-0.00001635,0.00002443,0.0000
 2539,-0.00001869,-0.00004421,0.00000276,-0.00000677,-0.00000735,-0.000
 03408,0.00002096,0.00002817,-0.00002886,0.00000325,-0.00004399,-0.0000
 1872,0.00001266,0.00007446,-0.00002162,0.00015217,-0.00032706,0.000122
 93,-0.00022964,0.00180471,-0.00055993,-0.00176284,0.00139510,-0.007256
 48,0.00798982,-0.00201469,-0.23608043,0.13839963,-0.00150850,-0.006800
 60,0.00806775,-0.00173421,-0.00097514,-0.00258364,0.00004664,0.0000916
 0,0.00016056,0.00002482,0.00004423,0.00000750,0.00016239,0.00001223,0.
 00018824,0.00001988,-0.00049295,-0.00046905,-0.00017596,0.00001815,0.0
 0021367,0.00001613,0.00000471,0.00001420,-0.00000016,-0.00000419,0.000
 00405,-0.00000429,0.00000045,0.00000027,-0.00000702,0.00000377,0.00000
 228,-0.00000035,0.00000671,-0.00000207,-0.00001308,0.00001282,-0.00000
 890,-0.00066546,0.00042061,-0.00017137,0.00224597,0.24643704,-0.000154
 10,-0.00005628,-0.00001780,-0.00001870,-0.00021000,-0.00011193,0.00037
 247,0.00042990,-0.00017449,-0.00197465,0.00258019,0.00469287,-0.000003
 78,-0.00055075,-0.00018551,0.00129475,0.00182806,0.00375469,-0.0003457
 0,0.00037205,-0.00014337,0.00001101,-0.00020974,-0.00010356,-0.0000260
 8,-0.00002032,0.00005790,0.00005086,-0.00001450,-0.00000325,-0.0000170
 3,-0.00001914,0.00000957,0.00003000,-0.00000593,0.00000095,0.00000623,
 0.00002124,-0.00001788,-0.00001894,0.00000210,-0.00002806,0.00003247,0
 .00001520,-0.00000707,-0.00006193,0.00014782,0.00008843,0.00024179,-0.
 00020002,-0.00004038,-0.00106756,-0.00188896,-0.00194300,-0.00100890,0
 .00701288,-0.00071898,0.00052138,0.13839261,-0.13228355,0.00099731,0.0
 0904383,-0.00130526,0.00143816,-0.00244795,-0.00284290,-0.00004494,0.0
 0015800,0.00020903,-0.00002030,0.00000441,0.00004970,-0.00013773,0.000
 18775,0.00013833,0.00003635,-0.00046885,-0.00084406,0.00009442,0.00021
 346,0.00019258,-0.00001152,0.00001420,0.00001392,0.00000005,0.00000405
 ,-0.00000115,0.00000295,0.00000050,0.00000087,0.00000454,0.00000261,0.
 00000584,-0.00000004,-0.00000197,0.00000511,0.00000782,-0.00000785,0.0
 0000652,0.00043479,-0.00011715,0.00031177,-0.00017055,-0.15402974,0.13
 093987,0.00436247,0.02358619,-0.01638859,-0.00422570,0.00090770,-0.001
 15794,-0.00069339,0.00003582,-0.00003038,-0.00460958,-0.00087413,0.000
 24943,0.00042979,-0.00112898,0.00079490,0.00020686,-0.00003131,0.00003
 867,-0.00005045,0.00003058,-0.00002455,-0.00001557,-0.00000781,0.00000
 528,-0.00000583,0.00000112,-0.00000096,-0.00001050,-0.00000869,0.00000
 568,-0.00000042,0.00000141,-0.00000096,-0.00000690,-0.00000863,0.00000
 571,0.00001094,-0.00000159,0.00000160,-0.00000590,0.00000275,-0.000002
 24,0.00001980,0.00000371,-0.00000167,-0.00000932,-0.00000525,0.0000038
 0,0.00004169,0.00001924,-0.00001173,-0.00005262,-0.00003010,0.00001387
 ,0.00015670,0.00038115,-0.00025028,0.00138742,-0.00119455,0.00098415,0
 .00300144,-0.02235300,0.01547150,-0.05777231,-0.00258963,0.00096212,0.
 00120298,-0.00022717,0.00044071,0.00005750,0.00105984,-0.00073996,0.00
 011384,0.00003118,0.00003236,-0.00034484,-0.00018369,0.00010202,0.0000
 1580,0.00001611,-0.00001140,0.00000024,-0.00000016,0.00000005,-0.00000
 065,0.00000005,-0.00000009,0.00000106,0.00000057,-0.00000038,0.0000002
 6,0.00000009,-0.00000006,-0.00000005,-0.00000048,0.00000027,-0.0000030
 9,0.00000021,-0.00000042,-0.00002956,0.00000912,-0.00000760,-0.0004064
 6,0.00067866,-0.00049491,0.05723435,-0.00244294,-0.00601386,0.00768982
 ,0.00238407,0.00343597,0.00373682,-0.00012913,0.00031827,-0.00061277,-
 0.00236202,0.00190913,0.00142319,0.00051245,-0.00043905,0.00041819,0.0
 0003494,0.00004975,-0.00017675,0.00003374,0.00007638,-0.00003000,-0.00
 006369,0.00000775,-0.00001652,0.00002320,0.00002096,-0.00001463,-0.000
 03153,0.00000226,-0.00000438,0.00001296,0.00001671,-0.00001168,-0.0000
 2272,0.00000365,-0.00000369,-0.00000913,-0.00001440,0.00000882,0.00001
 312,-0.00001459,0.00001223,-0.00001796,-0.00000838,0.00000355,0.000034
 33,-0.00003770,0.00001840,-0.00005758,0.00000458,-0.00000385,0.0000797
 9,-0.00005128,0.00012089,-0.00034140,0.00014415,-0.00024220,0.00169019
 ,-0.00029248,-0.00140628,0.00165215,-0.00726189,0.00763930,-0.00215105
 ,-0.23805346,0.13902265,0.00027224,-0.00121820,-0.00310605,-0.00014911
 ,-0.00034884,0.00036242,0.00001697,-0.00046697,-0.00051060,-0.00017163
 ,0.00000294,0.00018101,0.00001803,0.00000511,0.00001210,-0.00000015,-0
 .00000419,0.00000405,0.00000005,-0.00000345,0.00000293,-0.00000393,-0.
 00000046,0.00000065,-0.00000514,0.00000112,-0.00000085,0.00000048,0.00
 000462,-0.00000216,-0.00000220,0.00000666,-0.00000211,-0.00001510,0.00
 001404,-0.00000919,-0.00068201,0.00041031,-0.00018167,0.00187968,0.247
 79483,0.00165864,0.00875553,-0.00078146,-0.00218158,0.00367637,0.00604
 640,0.00008398,-0.00060602,-0.00013427,0.00128105,0.00148411,0.0031247
 0,-0.00034319,0.00035098,-0.00012357,-0.00000727,-0.00017947,-0.000083
 11,-0.00002674,-0.00003013,0.00005092,0.00004402,-0.00001423,-0.000000
 64,-0.00001626,-0.00001553,0.00000860,0.00002152,-0.00000344,0.0000010
 7,-0.00000897,-0.00001215,0.00000716,0.00001548,-0.00000311,0.00000247
 ,0.00000682,0.00000912,-0.00000719,-0.00000943,0.00001181,-0.00000630,
 0.00001336,0.00000444,-0.00000473,-0.00002365,0.00001678,-0.00002579,0
 .00004153,-0.00000071,0.00000461,-0.00006232,0.00011639,0.00003512,0.0
 0025070,-0.00021262,-0.00002733,-0.00101598,-0.00152439,-0.00140520,-0
 .00117242,0.00665646,-0.00100469,0.00065803,0.13900469,-0.13376875,0.0
 0009444,-0.00312650,-0.00354245,0.00009826,0.00041192,-0.00009890,0.00
 004221,-0.00051002,-0.00084905,0.00009365,0.00018052,0.00015282,-0.000
 01273,0.00001202,0.00001264,0.00000005,0.00000405,-0.00000115,-0.00000
 009,0.00000293,-0.00000126,0.00000274,0.00000084,0.00000024,0.00000357
 ,-0.00000063,0.00000078,-0.00000040,-0.00000220,0.00000299,0.00000125,
 -0.00000201,0.00000519,0.00000919,-0.00000820,0.00000774,0.00044851,-0
 .00012596,0.00029427,0.00001203,-0.15432168,0.13210812\\0.00002583,-0.
 00000579,0.00000507,0.00002592,0.00000651,-0.00000345,0.00000355,0.000
 04717,-0.00003256,-0.00000642,-0.00016008,0.00011073,0.00000046,0.0001
 1458,-0.00007943,-0.00000450,-0.00022129,0.00015324,0.00000111,0.00014
 222,-0.00009856,0.00000106,-0.00022121,0.00015342,0.00000132,0.0001146
 0,-0.00007940,0.00000393,-0.00015993,0.00011105,-0.00000282,0.00004709
 ,-0.00003276,-0.00002583,0.00000579,-0.00000507,-0.00002592,-0.0000065
 1,0.00000345,-0.00000355,-0.00004717,0.00003256,0.00000642,0.00016008,
 -0.00011073,-0.00000046,-0.00011458,0.00007943,0.00000450,0.00022129,-
 0.00015324,-0.00000111,-0.00014222,0.00009856,-0.00000106,0.00022121,-
 0.00015342,-0.00000132,-0.00011460,0.00007940,-0.00000393,0.00015993,-
 0.00011105,0.00000282,-0.00004709,0.00003276,-0.00002298,0.00000077,-0
 .00000147,-0.00002300,-0.00000141,0.00000004,-0.00001198,-0.00000175,0
 .00000072,0.00000174,-0.00001582,0.00001104,-0.00000012,-0.00001560,0.
 00001081,-0.00000199,-0.00001588,0.00001093,0.00001196,-0.00000142,0.0
 0000147,0.00002298,-0.00000077,0.00000147,0.00002300,0.00000141,-0.000
 00004,0.00001198,0.00000175,-0.00000072,-0.00000174,0.00001582,-0.0000
 1104,0.00000012,0.00001560,-0.00001081,0.00000199,0.00001588,-0.000010
 93,-0.00001196,0.00000142,-0.00000147\\\@
 The archive entry for this job was punched.


 THE WORLD IS NOT A HAMBURGER - YOU CAN'T HAVE IT YOUR WAY.
 Job cpu time:       0 days  0 hours 23 minutes 48.7 seconds.
 Elapsed time:       0 days  0 hours  2 minutes 58.6 seconds.
 File lengths (MBytes):  RWF=    213 Int=      0 D2E=      0 Chk=     11 Scr=      1
 Normal termination of Gaussian 16 at Tue Oct  8 23:25:22 2024.
