 Entering Gaussian System, Link 0=g16
 Initial command:
 /opt/g16/l1.exe "/tmp/Gau-1338816.inp" -scrdir="/tmp/"
 Entering Link 1 = /opt/g16/l1.exe PID=   1338818.
  
 Copyright (c) 1988-2019, Gaussian, Inc.  All Rights Reserved.
  
 This is part of the Gaussian(R) 16 program.  It is based on
 the Gaussian(R) 09 system (copyright 2009, Gaussian, Inc.),
 the Gaussian(R) 03 system (copyright 2003, Gaussian, Inc.),
 the Gaussian(R) 98 system (copyright 1998, Gaussian, Inc.),
 the Gaussian(R) 94 system (copyright 1995, Gaussian, Inc.),
 the Gaussian 92(TM) system (copyright 1992, Gaussian, Inc.),
 the Gaussian 90(TM) system (copyright 1990, Gaussian, Inc.),
 the Gaussian 88(TM) system (copyright 1988, Gaussian, Inc.),
 the Gaussian 86(TM) system (copyright 1986, Carnegie Mellon
 University), and the Gaussian 82(TM) system (copyright 1983,
 Carnegie Mellon University). Gaussian is a federally registered
 trademark of Gaussian, Inc.
  
 This software contains proprietary and confidential information,
 including trade secrets, belonging to Gaussian, Inc.
  
 This software is provided under written license and may be
 used, copied, transmitted, or stored only in accord with that
 written license.
  
 The following legend is applicable only to US Government
 contracts under FAR:
  
                    RESTRICTED RIGHTS LEGEND
  
 Use, reproduction and disclosure by the US Government is
 subject to restrictions as set forth in subparagraphs (a)
 and (c) of the Commercial Computer Software - Restricted
 Rights clause in FAR 52.227-19.
  
 Gaussian, Inc.
 340 Quinnipiac St., Bldg. 40, Wallingford CT 06492
  
  
 ---------------------------------------------------------------
 Warning -- This program may not be used in any manner that
 competes with the business of Gaussian, Inc. or will provide
 assistance to any competitor of Gaussian, Inc.  The licensee
 of this program is prohibited from giving any competitor of
 Gaussian, Inc. access to this program.  By using this program,
 the user acknowledges that Gaussian, Inc. is engaged in the
 business of creating and licensing software in the field of
 computational chemistry and represents and warrants to the
 licensee that it is not a competitor of Gaussian, Inc. and that
 it will not use this program in any manner prohibited above.
 ---------------------------------------------------------------
  

 Cite this work as:
 Gaussian 16, Revision C.01,
 M. J. Frisch, G. W. Trucks, H. B. Schlegel, G. E. Scuseria, 
 M. A. Robb, J. R. Cheeseman, G. Scalmani, V. Barone, 
 G. A. Petersson, H. Nakatsuji, X. Li, M. Caricato, A. V. Marenich, 
 J. Bloino, B. G. Janesko, R. Gomperts, B. Mennucci, H. P. Hratchian, 
 J. V. Ortiz, A. F. Izmaylov, J. L. Sonnenberg, D. Williams-Young, 
 F. Ding, F. Lipparini, F. Egidi, J. Goings, B. Peng, A. Petrone, 
 T. Henderson, D. Ranasinghe, V. G. Zakrzewski, J. Gao, N. Rega, 
 G. Zheng, W. Liang, M. Hada, M. Ehara, K. Toyota, R. Fukuda, 
 J. Hasegawa, M. Ishida, T. Nakajima, Y. Honda, O. Kitao, H. Nakai, 
 T. Vreven, K. Throssell, J. A. Montgomery, Jr., J. E. Peralta, 
 F. Ogliaro, M. J. Bearpark, J. J. Heyd, E. N. Brothers, K. N. Kudin, 
 V. N. Staroverov, T. A. Keith, R. Kobayashi, J. Normand, 
 K. Raghavachari, A. P. Rendell, J. C. Burant, S. S. Iyengar, 
 J. Tomasi, M. Cossi, J. M. Millam, M. Klene, C. Adamo, R. Cammi, 
 J. W. Ochterski, R. L. Martin, K. Morokuma, O. Farkas, 
 J. B. Foresman, and D. J. Fox, Gaussian, Inc., Wallingford CT, 2019.
 
 ******************************************
 Gaussian 16:  ES64L-G16RevC.01  3-Jul-2019
                 8-Oct-2024 
 ******************************************
 %nprocshared=8
 Will use up to    8 processors via shared memory.
 %mem=7200MB
 ----------------------------------------------------------------------
 #N opt freq B3LYP/def2SVPP symm=veryloose em=gd3bj scale=0.961 press=0
 .987
 ----------------------------------------------------------------------
 1/18=20,19=15,26=3,38=1,113=-987000,114=961000/1,3;
 2/9=110,12=2,17=2,18=2,40=1/2;
 3/5=43,7=202,11=2,25=1,30=1,71=1,74=-5,124=41/1,2,3;
 4//1;
 5/5=2,38=5/2;
 6/7=2,8=2,9=2,10=2,28=1/1;
 7//1,2,3,16;
 1/18=20,19=15,26=3/3(2);
 2/9=110/2;
 99//99;
 2/9=110/2;
 3/5=43,7=202,11=2,25=1,30=1,71=1,74=-5,124=41/1,2,3;
 4/5=5,16=3,69=1/1;
 5/5=2,38=5/2;
 7//1,2,3,16;
 1/18=20,19=15,26=3/3(-5);
 2/9=110/2;
 6/7=2,8=2,9=2,10=2,19=2,28=1/1;
 99/9=1/99;
 ------------------------------
 c1ccc2c(c1)ccc1ccc3ccccc3c12_2
 ------------------------------
 Symbolic Z-matrix:
 Charge =  0 Multiplicity = 1
 C                     3.7439    1.8488   -0.0179 
 C                     2.5521    2.4659   -0.3508 
 C                     1.3559    1.739    -0.3107 
 C                     1.2807    0.3793    0.0919 
 C                     2.5393   -0.2389    0.3291 
 C                     3.7373    0.4973    0.304 
 C                     2.6112   -1.6088    0.5548 
 C                     1.4671   -2.3895    0.4956 
 C                     0.2089   -1.8137    0.3069 
 C                    -0.8832   -2.6803    0.2255 
 C                    -2.1731   -2.1956    0.0722 
 C                    -2.4166   -0.8272    0.0942 
 C                    -3.7502   -0.3852    0.0317 
 C                    -4.0675    0.9619    0.1529 
 C                    -3.052     1.8743    0.372 
 C                    -1.7219    1.4388    0.4184 
 C                    -1.3345    0.0875    0.2175 
 C                     0.0466   -0.4042    0.2021 
 H                     4.6779    2.4023   -0.0456 
 H                     2.5433    3.5075   -0.6612 
 H                     0.4751    2.257    -0.6753 
 H                     4.688     0.0111    0.5148 
 H                     3.568    -2.0976    0.7246 
 H                     1.5736   -3.4666    0.6124 
 H                    -0.7415   -3.7587    0.269 
 H                    -2.9916   -2.9076   -0.0082 
 H                    -4.5627   -1.0992   -0.0899 
 H                    -5.1029    1.2878    0.1151 
 H                    -3.284     2.9247    0.5268 
 H                    -0.9873    2.19      0.6885 
 

 GradGradGradGradGradGradGradGradGradGradGradGradGradGradGradGradGradGrad
 Berny optimization.
 Initialization pass.
                           ----------------------------
                           !    Initial Parameters    !
                           ! (Angstroms and Degrees)  !
 --------------------------                            --------------------------
 ! Name  Definition              Value          Derivative Info.                !
 --------------------------------------------------------------------------------
 ! R1    R(1,2)                  1.3828         estimate D2E/DX2                !
 ! R2    R(1,6)                  1.3893         estimate D2E/DX2                !
 ! R3    R(1,19)                 1.086          estimate D2E/DX2                !
 ! R4    R(2,3)                  1.4003         estimate D2E/DX2                !
 ! R5    R(2,20)                 1.0869         estimate D2E/DX2                !
 ! R6    R(3,4)                  1.42           estimate D2E/DX2                !
 ! R7    R(3,21)                 1.0849         estimate D2E/DX2                !
 ! R8    R(4,5)                  1.4221         estimate D2E/DX2                !
 ! R9    R(4,18)                 1.466          estimate D2E/DX2                !
 ! R10   R(5,6)                  1.4064         estimate D2E/DX2                !
 ! R11   R(5,7)                  1.3902         estimate D2E/DX2                !
 ! R12   R(6,22)                 1.0884         estimate D2E/DX2                !
 ! R13   R(7,8)                  1.3863         estimate D2E/DX2                !
 ! R14   R(7,23)                 1.0878         estimate D2E/DX2                !
 ! R15   R(8,9)                  1.3965         estimate D2E/DX2                !
 ! R16   R(8,24)                 1.0886         estimate D2E/DX2                !
 ! R17   R(9,10)                 1.3965         estimate D2E/DX2                !
 ! R18   R(9,18)                 1.4227         estimate D2E/DX2                !
 ! R19   R(10,11)                1.3865         estimate D2E/DX2                !
 ! R20   R(10,25)                1.0885         estimate D2E/DX2                !
 ! R21   R(11,12)                1.3901         estimate D2E/DX2                !
 ! R22   R(11,26)                1.0878         estimate D2E/DX2                !
 ! R23   R(12,13)                1.4063         estimate D2E/DX2                !
 ! R24   R(12,17)                1.4223         estimate D2E/DX2                !
 ! R25   R(13,14)                1.3893         estimate D2E/DX2                !
 ! R26   R(13,27)                1.0885         estimate D2E/DX2                !
 ! R27   R(14,15)                1.3826         estimate D2E/DX2                !
 ! R28   R(14,28)                1.0861         estimate D2E/DX2                !
 ! R29   R(15,16)                1.4003         estimate D2E/DX2                !
 ! R30   R(15,29)                1.0868         estimate D2E/DX2                !
 ! R31   R(16,17)                1.42           estimate D2E/DX2                !
 ! R32   R(16,30)                1.0848         estimate D2E/DX2                !
 ! R33   R(17,18)                1.4661         estimate D2E/DX2                !
 ! A1    A(2,1,6)              119.0661         estimate D2E/DX2                !
 ! A2    A(2,1,19)             120.5074         estimate D2E/DX2                !
 ! A3    A(6,1,19)             120.3825         estimate D2E/DX2                !
 ! A4    A(1,2,3)              119.8485         estimate D2E/DX2                !
 ! A5    A(1,2,20)             120.2261         estimate D2E/DX2                !
 ! A6    A(3,2,20)             119.9155         estimate D2E/DX2                !
 ! A7    A(2,3,4)              123.394          estimate D2E/DX2                !
 ! A8    A(2,3,21)             115.8519         estimate D2E/DX2                !
 ! A9    A(4,3,21)             120.627          estimate D2E/DX2                !
 ! A10   A(3,4,5)              114.6228         estimate D2E/DX2                !
 ! A11   A(3,4,18)             125.2851         estimate D2E/DX2                !
 ! A12   A(5,4,18)             120.0107         estimate D2E/DX2                !
 ! A13   A(4,5,6)              121.5575         estimate D2E/DX2                !
 ! A14   A(4,5,7)              120.0785         estimate D2E/DX2                !
 ! A15   A(6,5,7)              118.3378         estimate D2E/DX2                !
 ! A16   A(1,6,5)              121.1589         estimate D2E/DX2                !
 ! A17   A(1,6,22)             118.3767         estimate D2E/DX2                !
 ! A18   A(5,6,22)             120.4487         estimate D2E/DX2                !
 ! A19   A(5,7,8)              120.3503         estimate D2E/DX2                !
 ! A20   A(5,7,23)             120.9057         estimate D2E/DX2                !
 ! A21   A(8,7,23)             118.6539         estimate D2E/DX2                !
 ! A22   A(7,8,9)              121.1388         estimate D2E/DX2                !
 ! A23   A(7,8,24)             118.1545         estimate D2E/DX2                !
 ! A24   A(9,8,24)             120.7027         estimate D2E/DX2                !
 ! A25   A(8,9,10)             117.1667         estimate D2E/DX2                !
 ! A26   A(8,9,18)             121.415          estimate D2E/DX2                !
 ! A27   A(10,9,18)            121.4184         estimate D2E/DX2                !
 ! A28   A(9,10,11)            121.1347         estimate D2E/DX2                !
 ! A29   A(9,10,25)            120.7058         estimate D2E/DX2                !
 ! A30   A(11,10,25)           118.1554         estimate D2E/DX2                !
 ! A31   A(10,11,12)           120.3557         estimate D2E/DX2                !
 ! A32   A(10,11,26)           118.6446         estimate D2E/DX2                !
 ! A33   A(12,11,26)           120.9095         estimate D2E/DX2                !
 ! A34   A(11,12,13)           118.3465         estimate D2E/DX2                !
 ! A35   A(11,12,17)           120.0796         estimate D2E/DX2                !
 ! A36   A(13,12,17)           121.5476         estimate D2E/DX2                !
 ! A37   A(12,13,14)           121.1621         estimate D2E/DX2                !
 ! A38   A(12,13,27)           120.4418         estimate D2E/DX2                !
 ! A39   A(14,13,27)           118.3804         estimate D2E/DX2                !
 ! A40   A(13,14,15)           119.0743         estimate D2E/DX2                !
 ! A41   A(13,14,28)           120.3737         estimate D2E/DX2                !
 ! A42   A(15,14,28)           120.5082         estimate D2E/DX2                !
 ! A43   A(14,15,16)           119.8442         estimate D2E/DX2                !
 ! A44   A(14,15,29)           120.237          estimate D2E/DX2                !
 ! A45   A(16,15,29)           119.9088         estimate D2E/DX2                !
 ! A46   A(15,16,17)           123.3933         estimate D2E/DX2                !
 ! A47   A(15,16,30)           115.854          estimate D2E/DX2                !
 ! A48   A(17,16,30)           120.6258         estimate D2E/DX2                !
 ! A49   A(12,17,16)           114.627          estimate D2E/DX2                !
 ! A50   A(12,17,18)           120.0078         estimate D2E/DX2                !
 ! A51   A(16,17,18)           125.2842         estimate D2E/DX2                !
 ! A52   A(4,18,9)             116.0409         estimate D2E/DX2                !
 ! A53   A(4,18,17)            127.9211         estimate D2E/DX2                !
 ! A54   A(9,18,17)            116.0379         estimate D2E/DX2                !
 ! D1    D(6,1,2,3)              2.3847         estimate D2E/DX2                !
 ! D2    D(6,1,2,20)          -176.4687         estimate D2E/DX2                !
 ! D3    D(19,1,2,3)           179.9824         estimate D2E/DX2                !
 ! D4    D(19,1,2,20)            1.1291         estimate D2E/DX2                !
 ! D5    D(2,1,6,5)             -1.6305         estimate D2E/DX2                !
 ! D6    D(2,1,6,22)           176.9314         estimate D2E/DX2                !
 ! D7    D(19,1,6,5)          -179.2313         estimate D2E/DX2                !
 ! D8    D(19,1,6,22)           -0.6694         estimate D2E/DX2                !
 ! D9    D(1,2,3,4)              1.6079         estimate D2E/DX2                !
 ! D10   D(1,2,3,21)          -174.3082         estimate D2E/DX2                !
 ! D11   D(20,2,3,4)          -179.5352         estimate D2E/DX2                !
 ! D12   D(20,2,3,21)            4.5487         estimate D2E/DX2                !
 ! D13   D(2,3,4,5)             -5.9562         estimate D2E/DX2                !
 ! D14   D(2,3,4,18)           177.3423         estimate D2E/DX2                !
 ! D15   D(21,3,4,5)           169.7725         estimate D2E/DX2                !
 ! D16   D(21,3,4,18)           -6.929          estimate D2E/DX2                !
 ! D17   D(3,4,5,6)              6.6254         estimate D2E/DX2                !
 ! D18   D(3,4,5,7)           -171.482          estimate D2E/DX2                !
 ! D19   D(18,4,5,6)          -176.4838         estimate D2E/DX2                !
 ! D20   D(18,4,5,7)             5.4088         estimate D2E/DX2                !
 ! D21   D(3,4,18,9)           165.4463         estimate D2E/DX2                !
 ! D22   D(3,4,18,17)          -14.5541         estimate D2E/DX2                !
 ! D23   D(5,4,18,9)           -11.0908         estimate D2E/DX2                !
 ! D24   D(5,4,18,17)          168.9088         estimate D2E/DX2                !
 ! D25   D(4,5,6,1)             -3.1396         estimate D2E/DX2                !
 ! D26   D(4,5,6,22)           178.3281         estimate D2E/DX2                !
 ! D27   D(7,5,6,1)            174.9997         estimate D2E/DX2                !
 ! D28   D(7,5,6,22)            -3.5326         estimate D2E/DX2                !
 ! D29   D(4,5,7,8)              2.6817         estimate D2E/DX2                !
 ! D30   D(4,5,7,23)           179.1853         estimate D2E/DX2                !
 ! D31   D(6,5,7,8)           -175.4861         estimate D2E/DX2                !
 ! D32   D(6,5,7,23)             1.0176         estimate D2E/DX2                !
 ! D33   D(5,7,8,9)             -4.7212         estimate D2E/DX2                !
 ! D34   D(5,7,8,24)           176.0009         estimate D2E/DX2                !
 ! D35   D(23,7,8,9)           178.6972         estimate D2E/DX2                !
 ! D36   D(23,7,8,24)           -0.5806         estimate D2E/DX2                !
 ! D37   D(7,8,9,10)           178.3854         estimate D2E/DX2                !
 ! D38   D(7,8,9,18)            -1.617          estimate D2E/DX2                !
 ! D39   D(24,8,9,10)           -2.3551         estimate D2E/DX2                !
 ! D40   D(24,8,9,18)          177.6425         estimate D2E/DX2                !
 ! D41   D(8,9,10,11)          178.3836         estimate D2E/DX2                !
 ! D42   D(8,9,10,25)           -2.3581         estimate D2E/DX2                !
 ! D43   D(18,9,10,11)          -1.614          estimate D2E/DX2                !
 ! D44   D(18,9,10,25)         177.6443         estimate D2E/DX2                !
 ! D45   D(8,9,18,4)             9.2657         estimate D2E/DX2                !
 ! D46   D(8,9,18,17)         -170.7339         estimate D2E/DX2                !
 ! D47   D(10,9,18,4)         -170.7368         estimate D2E/DX2                !
 ! D48   D(10,9,18,17)           9.2636         estimate D2E/DX2                !
 ! D49   D(9,10,11,12)          -4.7208         estimate D2E/DX2                !
 ! D50   D(9,10,11,26)         178.7019         estimate D2E/DX2                !
 ! D51   D(25,10,11,12)        176.0025         estimate D2E/DX2                !
 ! D52   D(25,10,11,26)         -0.5749         estimate D2E/DX2                !
 ! D53   D(10,11,12,13)       -175.4862         estimate D2E/DX2                !
 ! D54   D(10,11,12,17)          2.6759         estimate D2E/DX2                !
 ! D55   D(26,11,12,13)          1.0128         estimate D2E/DX2                !
 ! D56   D(26,11,12,17)        179.1748         estimate D2E/DX2                !
 ! D57   D(11,12,13,14)        174.998          estimate D2E/DX2                !
 ! D58   D(11,12,13,27)         -3.5374         estimate D2E/DX2                !
 ! D59   D(17,12,13,14)         -3.1357         estimate D2E/DX2                !
 ! D60   D(17,12,13,27)        178.3289         estimate D2E/DX2                !
 ! D61   D(11,12,17,16)       -171.4833         estimate D2E/DX2                !
 ! D62   D(11,12,17,18)          5.4158         estimate D2E/DX2                !
 ! D63   D(13,12,17,16)          6.6185         estimate D2E/DX2                !
 ! D64   D(13,12,17,18)       -176.4824         estimate D2E/DX2                !
 ! D65   D(12,13,14,15)         -1.6286         estimate D2E/DX2                !
 ! D66   D(12,13,14,28)       -179.2358         estimate D2E/DX2                !
 ! D67   D(27,13,14,15)        176.9363         estimate D2E/DX2                !
 ! D68   D(27,13,14,28)         -0.6709         estimate D2E/DX2                !
 ! D69   D(13,14,15,16)          2.3808         estimate D2E/DX2                !
 ! D70   D(13,14,15,29)       -176.4686         estimate D2E/DX2                !
 ! D71   D(28,14,15,16)        179.9847         estimate D2E/DX2                !
 ! D72   D(28,14,15,29)          1.1352         estimate D2E/DX2                !
 ! D73   D(14,15,16,17)          1.6086         estimate D2E/DX2                !
 ! D74   D(14,15,16,30)       -174.3111         estimate D2E/DX2                !
 ! D75   D(29,15,16,17)       -179.5382         estimate D2E/DX2                !
 ! D76   D(29,15,16,30)          4.5422         estimate D2E/DX2                !
 ! D77   D(15,16,17,12)         -5.9518         estimate D2E/DX2                !
 ! D78   D(15,16,17,18)        177.3379         estimate D2E/DX2                !
 ! D79   D(30,16,17,12)        169.7807         estimate D2E/DX2                !
 ! D80   D(30,16,17,18)         -6.9296         estimate D2E/DX2                !
 ! D81   D(12,17,18,4)         168.9069         estimate D2E/DX2                !
 ! D82   D(12,17,18,9)         -11.0935         estimate D2E/DX2                !
 ! D83   D(16,17,18,4)         -14.5467         estimate D2E/DX2                !
 ! D84   D(16,17,18,9)         165.4529         estimate D2E/DX2                !
 --------------------------------------------------------------------------------
 Trust Radius=3.00D-01 FncErr=1.00D-07 GrdErr=1.00D-06 EigMax=2.50D+02 EigMin=1.00D-04
 Number of steps in this run=    180 maximum allowed number of steps=    180.
 GradGradGradGradGradGradGradGradGradGradGradGradGradGradGradGradGradGrad

                          Input orientation:                          
 ---------------------------------------------------------------------
 Center     Atomic      Atomic             Coordinates (Angstroms)
 Number     Number       Type             X           Y           Z
 ---------------------------------------------------------------------
      1          6           0        3.743900    1.848800   -0.017900
      2          6           0        2.552100    2.465900   -0.350800
      3          6           0        1.355900    1.739000   -0.310700
      4          6           0        1.280700    0.379300    0.091900
      5          6           0        2.539300   -0.238900    0.329100
      6          6           0        3.737300    0.497300    0.304000
      7          6           0        2.611200   -1.608800    0.554800
      8          6           0        1.467100   -2.389500    0.495600
      9          6           0        0.208900   -1.813700    0.306900
     10          6           0       -0.883200   -2.680300    0.225500
     11          6           0       -2.173100   -2.195600    0.072200
     12          6           0       -2.416600   -0.827200    0.094200
     13          6           0       -3.750200   -0.385200    0.031700
     14          6           0       -4.067500    0.961900    0.152900
     15          6           0       -3.052000    1.874300    0.372000
     16          6           0       -1.721900    1.438800    0.418400
     17          6           0       -1.334500    0.087500    0.217500
     18          6           0        0.046600   -0.404200    0.202100
     19          1           0        4.677900    2.402300   -0.045600
     20          1           0        2.543300    3.507500   -0.661200
     21          1           0        0.475100    2.257000   -0.675300
     22          1           0        4.688000    0.011100    0.514800
     23          1           0        3.568000   -2.097600    0.724600
     24          1           0        1.573600   -3.466600    0.612400
     25          1           0       -0.741500   -3.758700    0.269000
     26          1           0       -2.991600   -2.907600   -0.008200
     27          1           0       -4.562700   -1.099200   -0.089900
     28          1           0       -5.102900    1.287800    0.115100
     29          1           0       -3.284000    2.924700    0.526800
     30          1           0       -0.987300    2.190000    0.688500
 ---------------------------------------------------------------------
                    Distance matrix (angstroms):
                    1          2          3          4          5
     1  C    0.000000
     2  C    1.382759   0.000000
     3  C    2.408388   1.400316   0.000000
     4  C    2.870338   2.483212   1.420044   0.000000
     5  C    2.435151   2.788973   2.392043   1.422149   0.000000
     6  C    1.389322   2.389320   2.755130   2.468561   1.406351
     7  C    3.683204   4.174540   3.678673   2.436606   1.390229
     8  C    4.838459   5.046635   4.207968   2.804277   2.408820
     9  C    5.100552   4.923224   3.784008   2.450353   2.812695
    10  C    6.479355   6.214240   4.983101   3.749862   4.205315
    11  C    7.167718   6.651017   5.299201   4.308043   5.108952
    12  C    6.717537   5.977501   4.580511   3.889174   4.996221
    13  C    7.820150   6.927775   5.540913   5.089012   6.298227
    14  C    7.863443   6.806970   5.498370   5.380185   6.717349
    15  C    6.807123   5.681405   4.462507   4.591924   5.977465
    16  C    5.498493   4.462475   3.177194   3.200742   4.580445
    17  C    5.380310   4.591885   3.200734   2.634425   3.889128
    18  C    4.335255   3.849767   2.563306   1.465953   2.501401
    19  H    1.086041   2.148538   3.397930   3.956312   3.419057
    20  H    2.146290   1.086902   2.158787   3.456437   3.875077
    21  H    3.359145   2.112550   1.084927   2.182509   3.391056
    22  H    2.133597   3.367102   3.843173   3.453130   2.171151
    23  H    4.019493   4.797298   4.548047   3.430318   2.160882
    24  H    5.775895   6.089316   5.291293   3.891999   3.380959
    25  H    7.186458   7.069484   5.912685   4.609089   4.812094
    26  H    8.245629   7.728162   6.370491   5.391315   6.150332
    27  H    8.814505   7.962310   6.567645   6.030285   7.166176
    28  H    8.865567   7.759124   6.488527   6.447966   7.796142
    29  H    7.130613   5.919522   4.861683   5.244491   6.630104
    30  H    4.795797   3.699137   2.586965   2.962835   4.297165
                    6          7          8          9         10
     6  C    0.000000
     7  C    2.401387   0.000000
     8  C    3.677517   1.386348   0.000000
     9  C    4.217859   2.423733   1.396503   0.000000
    10  C    5.608237   3.669793   2.383575   1.396533   0.000000
    11  C    6.499098   4.844251   3.669867   2.423810   1.386462
    12  C    6.298317   5.108994   4.205357   2.812770   2.408845
    13  C    7.544243   6.499095   5.608265   4.217917   3.677599
    14  C    7.820076   7.167639   6.479284   5.100516   4.838456
    15  C    6.927867   6.651108   6.214301   4.923317   5.046735
    16  C    5.540972   5.299267   4.983128   3.784069   4.208041
    17  C    5.089064   4.308103   3.749911   2.450436   2.804363
    18  C    3.800573   2.855281   2.458735   1.422679   2.458802
    19  H    2.153131   4.551994   5.793400   6.153932   7.538710
    20  H    3.379135   5.259258   6.104998   5.890824   7.128535
    21  H    3.833735   4.584810   4.893366   4.195972   5.199361
    22  H    1.088420   2.634155   4.017144   4.841018   6.193997
    23  H    2.634212   1.087761   2.133407   3.396855   4.516838
    24  H    4.526501   2.128697   1.088636   2.165136   2.608414
    25  H    6.178544   3.993038   2.608442   2.165115   1.088539
    26  H    7.547775   5.778860   4.516885   3.396926   2.133455
    27  H    8.461322   7.220815   6.194043   4.841087   4.017222
    28  H    8.877483   8.251725   7.538714   6.153967   5.793434
    29  H    7.432400   7.436853   7.128439   5.890767   6.104969
    30  H    5.033380   5.234306   5.199337   4.195966   4.893366
                   11         12         13         14         15
    11  C    0.000000
    12  C    1.390070   0.000000
    13  C    2.401340   1.406328   0.000000
    14  C    3.683079   2.435117   1.389261   0.000000
    15  C    4.174498   2.789087   2.389273   1.382649   0.000000
    16  C    3.678627   2.392168   2.755089   2.408270   1.400350
    17  C    2.436577   1.422259   2.468516   2.870198   2.483210
    18  C    2.855356   2.501585   3.800669   4.335259   3.849903
    19  H    8.251713   7.796226   8.877443   8.865448   7.759158
    20  H    7.436912   6.630299   7.432454   7.130604   5.919648
    21  H    5.234249   4.297249   5.033312   4.795666   3.699153
    22  H    7.220811   7.166240   8.461304   8.814407   7.962381
    23  H    5.778880   6.150346   7.547746   8.245498   7.728177
    24  H    3.993121   4.812137   6.178599   7.186429   7.069595
    25  H    2.128730   3.380859   4.526488   5.775796   6.089311
    26  H    1.087819   2.160827   2.634306   4.019520   4.797371
    27  H    2.634114   2.171088   1.088457   2.133614   3.367086
    28  H    4.551884   3.419045   2.153063   1.086137   2.148528
    29  H    5.259109   3.875084   3.379039   2.146219   1.086797
    30  H    4.584696   3.391104   3.833622   3.358977   2.112540
                   16         17         18         19         20
    16  C    0.000000
    17  C    1.420018   0.000000
    18  C    2.563401   1.466098   0.000000
    19  H    6.488534   6.447982   5.420954   0.000000
    20  H    4.861788   5.244602   4.720190   2.481320   0.000000
    21  H    2.586975   2.962849   2.834683   4.252195   2.416899
    22  H    6.567681   6.030318   4.670423   2.456011   4.267028
    23  H    6.370473   5.391319   3.942191   4.698317   5.864094
    24  H    5.912775   4.609188   3.446501   6.671854   7.155449
    25  H    5.291267   3.891986   3.446483   8.211382   8.028253
    26  H    4.548112   3.430386   3.942321   9.328326   8.497943
    27  H    3.843170   3.453118   4.670539   9.881860   8.487833
    28  H    3.397934   3.956266   5.421050   9.845404   7.999630
    29  H    2.158658   3.456287   4.720159   7.999525   5.975653
    30  H    1.084847   2.182406   2.834679   5.716508   4.002828
                   21         22         23         24         25
    21  H    0.000000
    22  H    4.920257   0.000000
    23  H    5.521620   2.396880   0.000000
    24  H    5.968624   4.669412   2.421648   0.000000
    25  H    6.209707   6.614475   4.640971   2.358587   0.000000
    26  H    6.255887   8.232168   6.649921   4.640978   2.421603
    27  H    6.081628   9.336695   8.232162   6.614528   4.669402
    28  H    5.716482   9.881875   9.328287   8.211412   6.671781
    29  H    4.002712   8.487755   8.497795   8.028220   7.155320
    30  H    2.000763   6.081678   6.255843   6.209760   5.968537
                   26         27         28         29         30
    26  H    0.000000
    27  H    2.396944   0.000000
    28  H    4.698316   2.455934   0.000000
    29  H    5.864081   4.266985   2.481398   0.000000
    30  H    5.521606   4.920186   4.252166   2.416767   0.000000
 Stoichiometry    C18H12
 Framework group  C2[C2(CC),X(C16H12)]
 Deg. of freedom    42
 Full point group                 C2      NOp   2
 Largest Abelian subgroup         C2      NOp   2
 Largest concise Abelian subgroup C2      NOp   2
                         Standard orientation:                         
 ---------------------------------------------------------------------
 Center     Atomic      Atomic             Coordinates (Angstroms)
 Number     Number       Type             X           Y           Z
 ---------------------------------------------------------------------
      1          6           0        0.227833    3.925157   -1.471103
      2          6           0        0.464130    2.802493   -2.242992
      3          6           0        0.421247    1.531706   -1.656351
      4          6           0        0.110508    1.312547   -0.288164
      5          6           0       -0.027372    2.497925    0.485384
      6          6           0        0.000000    3.772128   -0.109160
      7          6           0       -0.154576    2.417181    1.867424
      8          6           0       -0.092469    1.188225    2.505993
      9          6           0        0.000000   -0.000000    1.778072
     10          6           0        0.092469   -1.188225    2.505993
     11          6           0        0.154576   -2.417181    1.867424
     12          6           0        0.027372   -2.497925    0.485384
     13          6           0       -0.000000   -3.772128   -0.109160
     14          6           0       -0.227833   -3.925157   -1.471103
     15          6           0       -0.464130   -2.802493   -2.242992
     16          6           0       -0.421247   -1.531706   -1.656351
     17          6           0       -0.110508   -1.312547   -0.288164
     18          6           0        0.000000   -0.000000    0.355393
     19          1           0        0.258689    4.915880   -1.914952
     20          1           0        0.701207    2.904401   -3.298817
     21          1           0        0.709779    0.704967   -2.296911
     22          1           0       -0.134343    4.666410    0.496537
     23          1           0       -0.247607    3.315734    2.473372
     24          1           0       -0.129812    1.172141    3.593870
     25          1           0        0.129812   -1.172141    3.593870
     26          1           0        0.247607   -3.315734    2.473372
     27          1           0        0.134343   -4.666410    0.496537
     28          1           0       -0.258689   -4.915880   -1.914952
     29          1           0       -0.701207   -2.904401   -3.298817
     30          1           0       -0.709779   -0.704967   -2.296911
 ---------------------------------------------------------------------
 Rotational constants (GHZ):           0.8278076           0.3435834           0.2454874
 Standard basis: def2SVPP (5D, 7F)
 There are   150 symmetry adapted cartesian basis functions of A   symmetry.
 There are   144 symmetry adapted cartesian basis functions of B   symmetry.
 There are   140 symmetry adapted basis functions of A   symmetry.
 There are   136 symmetry adapted basis functions of B   symmetry.
   276 basis functions,   498 primitive gaussians,   294 cartesian basis functions
    60 alpha electrons       60 beta electrons
       nuclear repulsion energy      1151.9005795383 Hartrees.
 NAtoms=   30 NActive=   30 NUniq=   16 SFac= 3.52D+00 NAtFMM=   60 NAOKFM=F Big=F
 Integral buffers will be    131072 words long.
 Raffenetti 2 integral format.
 Two-electron integral symmetry is turned on.
 Nuclear repulsion after empirical dispersion term =     1151.8261842219 Hartrees.
 One-electron integrals computed using PRISM.
   2 Symmetry operations used in ECPInt.
 ECPInt:  NShTT=    8778 NPrTT=   35250 LenC2=    8372 LenP2D=   23643.
 LDataN:  DoStor=T MaxTD1= 4 Len=   56
 NBasis=   276 RedAO= T EigKep=  2.44D-04  NBF=   140   136
 NBsUse=   276 1.00D-06 EigRej= -1.00D+00 NBFU=   140   136
 ExpMin= 1.22D-01 ExpMax= 1.24D+03 ExpMxC= 1.86D+02 IAcc=3 IRadAn=         5 AccDes= 0.00D+00
 Harris functional with IExCor=  402 and IRadAn=       5 diagonalized for initial guess.
 HarFok:  IExCor=  402 AccDes= 0.00D+00 IRadAn=         5 IDoV= 1 UseB2=F ITyADJ=14
 ICtDFT=  3500011 ScaDFX=  1.000000  1.000000  1.000000  1.000000
 FoFCou: FMM=F IPFlag=           0 FMFlag=      100000 FMFlg1=           0
         NFxFlg=           0 DoJE=T BraDBF=F KetDBF=T FulRan=T
         wScrn=  0.000000 ICntrl=       500 IOpCl=  0 I1Cent=   200000004 NGrid=           0
         NMat0=    1 NMatS0=      1 NMatT0=    0 NMatD0=    1 NMtDS0=    0 NMtDT0=    0
 Petite list used in FoFCou.
 Initial guess orbital symmetries:
       Occupied  (B) (A) (B) (A) (B) (A) (A) (B) (A) (B) (A) (A)
                 (B) (B) (A) (B) (A) (A) (A) (B) (A) (B) (A) (A)
                 (B) (B) (A) (A) (B) (A) (B) (A) (B) (B) (A) (A)
                 (B) (A) (B) (B) (A) (A) (A) (B) (B) (A) (B) (B)
                 (A) (B) (A) (A) (B) (B) (A) (B) (B) (A) (A) (B)
       Virtual   (B) (A) (A) (B) (B) (A) (B) (A) (A) (B) (A) (B)
                 (A) (B) (A) (B) (A) (B) (B) (A) (A) (A) (B) (B)
                 (A) (B) (B) (A) (A) (B) (A) (B) (A) (B) (A) (B)
                 (A) (B) (A) (B) (A) (B) (A) (B) (A) (A) (A) (B)
                 (B) (B) (B) (A) (A) (B) (A) (B) (A) (B) (A) (A)
                 (B) (B) (A) (B) (A) (B) (A) (B) (A) (B) (A) (B)
                 (A) (B) (A) (A) (A) (B) (B) (A) (B) (A) (B) (A)
                 (B) (A) (B) (B) (B) (A) (A) (B) (A) (B) (A) (B)
                 (A) (A) (B) (A) (B) (A) (B) (B) (A) (B) (A) (B)
                 (A) (B) (A) (B) (A) (B) (A) (A) (B) (A) (B) (A)
                 (B) (B) (A) (B) (B) (A) (A) (B) (A) (A) (B) (A)
                 (B) (A) (B) (A) (B) (B) (A) (B) (A) (A) (B) (B)
                 (A) (B) (A) (B) (B) (A) (A) (B) (A) (B) (A) (A)
                 (B) (B) (A) (A) (B) (A) (B) (B) (B) (A) (B) (A)
                 (A) (B) (A) (B) (A) (B) (B) (A) (A) (B) (A) (B)
                 (B) (A) (B) (A) (A) (B) (A) (B) (A) (B) (A) (B)
                 (A) (A) (B) (B) (A) (B) (A) (B) (A) (A) (B) (A)
                 (B) (A) (B) (B) (A) (A) (B) (A) (B) (A) (A) (B)
 The electronic state of the initial guess is 1-A.
 Requested convergence on RMS density matrix=1.00D-08 within 128 cycles.
 Requested convergence on MAX density matrix=1.00D-06.
 Requested convergence on             energy=1.00D-06.
 No special actions if energy rises.
 Integral accuracy reduced to 1.0D-05 until final iterations.
 Initial convergence to 1.0D-05 achieved.  Increase integral accuracy.
 SCF Done:  E(RB3LYP) =  -692.714858614     A.U. after   14 cycles
            NFock= 14  Conv=0.84D-08     -V/T= 2.0104

 **********************************************************************

            Population analysis using the SCF Density.

 **********************************************************************

 Orbital symmetries:
       Occupied  (A) (B) (A) (A) (A) (B) (B) (A) (A) (B) (B) (A)
                 (A) (B) (B) (A) (B) (A) (A) (B) (A) (B) (A) (A)
                 (B) (B) (A) (A) (B) (A) (B) (A) (B) (B) (A) (A)
                 (A) (B) (B) (B) (A) (A) (A) (B) (B) (B) (A) (A)
                 (B) (A) (B) (B) (A) (B) (A) (B) (B) (A) (A) (B)
       Virtual   (B) (A) (A) (B) (B) (A) (A) (B) (A) (B) (A) (B)
                 (B) (A) (B) (A) (A) (B) (A) (B) (B) (A) (A) (B)
                 (A) (B) (A) (A) (B) (B) (A) (B) (A) (B) (A) (A)
                 (B) (B) (A) (B) (A) (A) (B) (A) (B) (B) (A) (B)
                 (A) (B) (B) (A) (A) (A) (B) (B) (A) (A) (B) (B)
                 (A) (A) (B) (B) (A) (B) (A) (A) (B) (B) (A) (B)
                 (B) (A) (A) (A) (B) (A) (B) (A) (B) (B) (A) (B)
                 (A) (A) (B) (A) (B) (B) (A) (B) (B) (A) (A) (B)
                 (A) (A) (B) (B) (A) (B) (A) (B) (A) (B) (A) (A)
                 (B) (B) (A) (B) (A) (A) (B) (A) (B) (B) (A) (A)
                 (B) (B) (A) (B) (B) (A) (A) (B) (A) (A) (B) (A)
                 (A) (B) (B) (B) (A) (A) (B) (B) (A) (A) (B) (A)
                 (B) (B) (A) (B) (B) (A) (A) (B) (A) (B) (A) (A)
                 (B) (B) (A) (A) (B) (A) (B) (B) (B) (A) (A) (B)
                 (A) (B) (A) (A) (B) (B) (B) (A) (B) (A) (A) (B)
                 (B) (A) (B) (A) (A) (B) (A) (B) (A) (B) (A) (B)
                 (A) (B) (A) (A) (B) (A) (B) (A) (B) (A) (B) (A)
                 (B) (A) (B) (B) (A) (A) (B) (A) (B) (A) (A) (B)
 The electronic state is 1-A.
 Alpha  occ. eigenvalues --  -10.20921 -10.20567 -10.20558 -10.19538 -10.19496
 Alpha  occ. eigenvalues --  -10.19496 -10.18936 -10.18934 -10.18865 -10.18864
 Alpha  occ. eigenvalues --  -10.18831 -10.18830 -10.18740 -10.18739 -10.18698
 Alpha  occ. eigenvalues --  -10.18696 -10.18695 -10.18694  -0.88586  -0.86167
 Alpha  occ. eigenvalues --   -0.83169  -0.79726  -0.77800  -0.75594  -0.74022
 Alpha  occ. eigenvalues --   -0.71570  -0.70656  -0.64335  -0.63140  -0.60726
 Alpha  occ. eigenvalues --   -0.60446  -0.58810  -0.54381  -0.52686  -0.51559
 Alpha  occ. eigenvalues --   -0.50946  -0.48031  -0.47916  -0.45442  -0.44405
 Alpha  occ. eigenvalues --   -0.44281  -0.43011  -0.42298  -0.41957  -0.41077
 Alpha  occ. eigenvalues --   -0.40019  -0.39414  -0.38443  -0.37801  -0.36403
 Alpha  occ. eigenvalues --   -0.35261  -0.35047  -0.33518  -0.32866  -0.30997
 Alpha  occ. eigenvalues --   -0.29770  -0.26823  -0.25779  -0.21978  -0.20975
 Alpha virt. eigenvalues --   -0.06220  -0.04625  -0.01435   0.00072   0.02968
 Alpha virt. eigenvalues --    0.05561   0.06437   0.06936   0.07025   0.09165
 Alpha virt. eigenvalues --    0.09865   0.10574   0.11837   0.12146   0.13907
 Alpha virt. eigenvalues --    0.13912   0.15996   0.16323   0.16768   0.17991
 Alpha virt. eigenvalues --    0.21934   0.22153   0.24598   0.25539   0.26392
 Alpha virt. eigenvalues --    0.27131   0.27339   0.28776   0.28933   0.30717
 Alpha virt. eigenvalues --    0.31511   0.31513   0.32046   0.33295   0.33767
 Alpha virt. eigenvalues --    0.35203   0.36189   0.37663   0.37710   0.39089
 Alpha virt. eigenvalues --    0.40056   0.41619   0.41720   0.42554   0.42582
 Alpha virt. eigenvalues --    0.44775   0.45350   0.45634   0.46202   0.47049
 Alpha virt. eigenvalues --    0.47551   0.47616   0.47760   0.48773   0.48802
 Alpha virt. eigenvalues --    0.50120   0.50689   0.51383   0.51457   0.52966
 Alpha virt. eigenvalues --    0.54412   0.55151   0.55410   0.55881   0.56018
 Alpha virt. eigenvalues --    0.58333   0.58716   0.60622   0.62089   0.63675
 Alpha virt. eigenvalues --    0.64858   0.65786   0.66097   0.66562   0.67106
 Alpha virt. eigenvalues --    0.68190   0.68440   0.68712   0.69406   0.70203
 Alpha virt. eigenvalues --    0.70402   0.71440   0.71682   0.72550   0.72945
 Alpha virt. eigenvalues --    0.73601   0.74647   0.75307   0.75630   0.76215
 Alpha virt. eigenvalues --    0.77060   0.78469   0.79680   0.79886   0.81635
 Alpha virt. eigenvalues --    0.82233   0.82378   0.83133   0.84486   0.86843
 Alpha virt. eigenvalues --    0.88029   0.88438   0.88669   0.91404   0.95383
 Alpha virt. eigenvalues --    0.96339   0.98064   1.07386   1.07608   1.10042
 Alpha virt. eigenvalues --    1.12983   1.13850   1.14533   1.16900   1.17015
 Alpha virt. eigenvalues --    1.18363   1.22854   1.24493   1.25226   1.26326
 Alpha virt. eigenvalues --    1.27659   1.28033   1.29324   1.33900   1.35395
 Alpha virt. eigenvalues --    1.36903   1.40339   1.42892   1.44923   1.45242
 Alpha virt. eigenvalues --    1.46018   1.46261   1.48090   1.48283   1.49340
 Alpha virt. eigenvalues --    1.49621   1.50144   1.51226   1.51447   1.53935
 Alpha virt. eigenvalues --    1.56174   1.68761   1.69426   1.70624   1.71409
 Alpha virt. eigenvalues --    1.74033   1.75985   1.77092   1.81729   1.82351
 Alpha virt. eigenvalues --    1.83191   1.83243   1.83861   1.85874   1.86390
 Alpha virt. eigenvalues --    1.88469   1.89380   1.92277   1.93186   1.94906
 Alpha virt. eigenvalues --    1.98757   1.99372   2.00992   2.04615   2.07107
 Alpha virt. eigenvalues --    2.07474   2.08759   2.09027   2.09038   2.13276
 Alpha virt. eigenvalues --    2.16026   2.17898   2.17964   2.19957   2.22169
 Alpha virt. eigenvalues --    2.22375   2.23631   2.24555   2.25904   2.28221
 Alpha virt. eigenvalues --    2.30603   2.30675   2.32269   2.33498   2.35076
 Alpha virt. eigenvalues --    2.37014   2.38201   2.47994   2.48141   2.49436
 Alpha virt. eigenvalues --    2.54858   2.55708   2.56809   2.58221   2.58679
 Alpha virt. eigenvalues --    2.61993   2.62877   2.63046   2.64479   2.64815
 Alpha virt. eigenvalues --    2.64820   2.67217   2.71571   2.72564   2.77102
 Alpha virt. eigenvalues --    2.79433   2.82996   2.86645   2.87621   2.97314
 Alpha virt. eigenvalues --    2.99166   3.04733   3.29117   3.34776   3.41478
 Alpha virt. eigenvalues --    3.51230
          Condensed to atoms (all electrons):
               1          2          3          4          5          6
     1  C    5.235947   0.167545   0.140612  -0.147331   0.142661   0.197357
     2  C    0.167545   5.191845   0.263206   0.117767  -0.158930   0.144631
     3  C    0.140612   0.263206   5.441058   0.238728   0.042521  -0.177559
     4  C   -0.147331   0.117767   0.238728   5.443966   0.133988   0.042119
     5  C    0.142661  -0.158930   0.042521   0.133988   5.380884   0.232033
     6  C    0.197357   0.144631  -0.177559   0.042119   0.232033   5.458774
     7  C    0.023060  -0.002174   0.029484   0.014290   0.168749  -0.157507
     8  C   -0.001809   0.000394  -0.003695  -0.123094   0.146417   0.020175
     9  C    0.000289  -0.000476   0.017706   0.002923  -0.146945  -0.001329
    10  C    0.000000  -0.000001  -0.000124   0.024854  -0.000403   0.000014
    11  C   -0.000000   0.000001  -0.000066  -0.004176   0.000203   0.000001
    12  C   -0.000002   0.000043  -0.000701   0.012815  -0.000191   0.000002
    13  C    0.000000  -0.000001   0.000020   0.000143   0.000002  -0.000000
    14  C   -0.000000   0.000002  -0.000032  -0.000161  -0.000002   0.000000
    15  C    0.000002  -0.000070   0.000334   0.001140   0.000043  -0.000001
    16  C   -0.000032   0.000334  -0.002295  -0.037322  -0.000701   0.000020
    17  C   -0.000161   0.001140  -0.037322  -0.108982   0.012815   0.000143
    18  C   -0.003549   0.014255  -0.126893   0.295966  -0.000631   0.024273
    19  H    0.436527  -0.084771   0.015208  -0.001229   0.015929  -0.079488
    20  H   -0.087040   0.437044  -0.074954   0.015827  -0.001749   0.015820
    21  H    0.015299  -0.070298   0.419885  -0.066656   0.016582  -0.001573
    22  H   -0.083175   0.016357  -0.002373   0.016104  -0.080057   0.442652
    23  H    0.001241  -0.000092  -0.000301   0.015256  -0.088422  -0.019785
    24  H    0.000013  -0.000001   0.000037  -0.001793   0.017372  -0.000620
    25  H    0.000000  -0.000000   0.000009  -0.000134  -0.000135  -0.000001
    26  H    0.000000  -0.000000   0.000000   0.000048  -0.000001   0.000000
    27  H    0.000000  -0.000000   0.000000   0.000007  -0.000000   0.000000
    28  H    0.000000  -0.000000   0.000000   0.000000   0.000000  -0.000000
    29  H    0.000000  -0.000004   0.000004   0.000020   0.000000  -0.000000
    30  H   -0.000175   0.002808   0.003604   0.001560  -0.000321   0.000047
               7          8          9         10         11         12
     1  C    0.023060  -0.001809   0.000289   0.000000  -0.000000  -0.000002
     2  C   -0.002174   0.000394  -0.000476  -0.000001   0.000001   0.000043
     3  C    0.029484  -0.003695   0.017706  -0.000124  -0.000066  -0.000701
     4  C    0.014290  -0.123094   0.002923   0.024854  -0.004176   0.012815
     5  C    0.168749   0.146417  -0.146945  -0.000403   0.000203  -0.000191
     6  C   -0.157507   0.020175  -0.001329   0.000014   0.000001   0.000002
     7  C    5.517536   0.171844   0.148687   0.021999  -0.001934   0.000203
     8  C    0.171844   5.505229   0.172394  -0.154036   0.021999  -0.000403
     9  C    0.148687   0.172394   5.403563   0.172394   0.148687  -0.146945
    10  C    0.021999  -0.154036   0.172394   5.505229   0.171844   0.146417
    11  C   -0.001934   0.021999   0.148687   0.171844   5.517536   0.168749
    12  C    0.000203  -0.000403  -0.146945   0.146417   0.168749   5.380884
    13  C    0.000001   0.000014  -0.001329   0.020175  -0.157507   0.232033
    14  C   -0.000000   0.000000   0.000289  -0.001809   0.023060   0.142661
    15  C    0.000001  -0.000001  -0.000476   0.000394  -0.002174  -0.158930
    16  C   -0.000066  -0.000124   0.017706  -0.003695   0.029484   0.042521
    17  C   -0.004176   0.024854   0.002923  -0.123094   0.014290   0.133988
    18  C   -0.125222   0.020021   0.198544   0.020021  -0.125222  -0.000631
    19  H   -0.000550   0.000011  -0.000001   0.000000   0.000000   0.000000
    20  H    0.000021   0.000000   0.000003  -0.000000  -0.000000   0.000000
    21  H   -0.000252  -0.000060  -0.000534   0.000048  -0.000038  -0.000321
    22  H   -0.023433   0.001483  -0.000112  -0.000001   0.000000  -0.000000
    23  H    0.442439  -0.079204   0.016851  -0.000641   0.000015  -0.000001
    24  H   -0.080806   0.446447  -0.088303  -0.022358   0.001751  -0.000135
    25  H    0.001751  -0.022358  -0.088303   0.446447  -0.080806   0.017372
    26  H    0.000015  -0.000641   0.016851  -0.079204   0.442439  -0.088422
    27  H    0.000000  -0.000001  -0.000112   0.001483  -0.023433  -0.080057
    28  H    0.000000   0.000000  -0.000001   0.000011  -0.000550   0.015929
    29  H   -0.000000  -0.000000   0.000003   0.000000   0.000021  -0.001749
    30  H   -0.000038   0.000048  -0.000534  -0.000060  -0.000252   0.016582
              13         14         15         16         17         18
     1  C    0.000000  -0.000000   0.000002  -0.000032  -0.000161  -0.003549
     2  C   -0.000001   0.000002  -0.000070   0.000334   0.001140   0.014255
     3  C    0.000020  -0.000032   0.000334  -0.002295  -0.037322  -0.126893
     4  C    0.000143  -0.000161   0.001140  -0.037322  -0.108982   0.295966
     5  C    0.000002  -0.000002   0.000043  -0.000701   0.012815  -0.000631
     6  C   -0.000000   0.000000  -0.000001   0.000020   0.000143   0.024273
     7  C    0.000001  -0.000000   0.000001  -0.000066  -0.004176  -0.125222
     8  C    0.000014   0.000000  -0.000001  -0.000124   0.024854   0.020021
     9  C   -0.001329   0.000289  -0.000476   0.017706   0.002923   0.198544
    10  C    0.020175  -0.001809   0.000394  -0.003695  -0.123094   0.020021
    11  C   -0.157507   0.023060  -0.002174   0.029484   0.014290  -0.125222
    12  C    0.232033   0.142661  -0.158930   0.042521   0.133988  -0.000631
    13  C    5.458774   0.197357   0.144631  -0.177559   0.042119   0.024273
    14  C    0.197357   5.235947   0.167545   0.140612  -0.147331  -0.003549
    15  C    0.144631   0.167545   5.191845   0.263206   0.117767   0.014255
    16  C   -0.177559   0.140612   0.263206   5.441058   0.238728  -0.126893
    17  C    0.042119  -0.147331   0.117767   0.238728   5.443966   0.295966
    18  C    0.024273  -0.003549   0.014255  -0.126893   0.295966   5.504610
    19  H   -0.000000   0.000000  -0.000000   0.000000   0.000000   0.000045
    20  H   -0.000000   0.000000  -0.000004   0.000004   0.000020  -0.000245
    21  H    0.000047  -0.000175   0.002808   0.003604   0.001560  -0.021626
    22  H    0.000000   0.000000  -0.000000   0.000000   0.000007  -0.000072
    23  H    0.000000   0.000000  -0.000000   0.000000   0.000048  -0.001366
    24  H   -0.000001   0.000000  -0.000000   0.000009  -0.000134   0.014977
    25  H   -0.000620   0.000013  -0.000001   0.000037  -0.001793   0.014977
    26  H   -0.019785   0.001241  -0.000092  -0.000301   0.015256  -0.001366
    27  H    0.442652  -0.083175   0.016357  -0.002373   0.016104  -0.000072
    28  H   -0.079488   0.436527  -0.084771   0.015208  -0.001229   0.000045
    29  H    0.015820  -0.087040   0.437044  -0.074954   0.015827  -0.000245
    30  H   -0.001573   0.015299  -0.070298   0.419885  -0.066656  -0.021626
              19         20         21         22         23         24
     1  C    0.436527  -0.087040   0.015299  -0.083175   0.001241   0.000013
     2  C   -0.084771   0.437044  -0.070298   0.016357  -0.000092  -0.000001
     3  C    0.015208  -0.074954   0.419885  -0.002373  -0.000301   0.000037
     4  C   -0.001229   0.015827  -0.066656   0.016104   0.015256  -0.001793
     5  C    0.015929  -0.001749   0.016582  -0.080057  -0.088422   0.017372
     6  C   -0.079488   0.015820  -0.001573   0.442652  -0.019785  -0.000620
     7  C   -0.000550   0.000021  -0.000252  -0.023433   0.442439  -0.080806
     8  C    0.000011   0.000000  -0.000060   0.001483  -0.079204   0.446447
     9  C   -0.000001   0.000003  -0.000534  -0.000112   0.016851  -0.088303
    10  C    0.000000  -0.000000   0.000048  -0.000001  -0.000641  -0.022358
    11  C    0.000000  -0.000000  -0.000038   0.000000   0.000015   0.001751
    12  C    0.000000   0.000000  -0.000321  -0.000000  -0.000001  -0.000135
    13  C   -0.000000  -0.000000   0.000047   0.000000   0.000000  -0.000001
    14  C    0.000000   0.000000  -0.000175   0.000000   0.000000   0.000000
    15  C   -0.000000  -0.000004   0.002808  -0.000000  -0.000000  -0.000000
    16  C    0.000000   0.000004   0.003604   0.000000   0.000000   0.000009
    17  C    0.000000   0.000020   0.001560   0.000007   0.000048  -0.000134
    18  C    0.000045  -0.000245  -0.021626  -0.000072  -0.001366   0.014977
    19  H    0.673747  -0.012298  -0.000340  -0.012619  -0.000022  -0.000000
    20  H   -0.012298   0.670610  -0.013519  -0.000359  -0.000001   0.000000
    21  H   -0.000340  -0.013519   0.662183   0.000028   0.000012  -0.000000
    22  H   -0.012619  -0.000359   0.000028   0.677189   0.006252  -0.000019
    23  H   -0.000022  -0.000001   0.000012   0.006252   0.681778  -0.013146
    24  H   -0.000000   0.000000  -0.000000  -0.000019  -0.013146   0.680950
    25  H   -0.000000   0.000000   0.000000  -0.000000  -0.000026   0.005727
    26  H    0.000000  -0.000000   0.000000  -0.000000  -0.000000  -0.000026
    27  H    0.000000  -0.000000  -0.000000  -0.000000  -0.000000  -0.000000
    28  H   -0.000000  -0.000000  -0.000001   0.000000   0.000000  -0.000000
    29  H   -0.000000  -0.000000   0.000058  -0.000000  -0.000000   0.000000
    30  H   -0.000001   0.000058  -0.000809  -0.000000   0.000000   0.000000
              25         26         27         28         29         30
     1  C    0.000000   0.000000   0.000000   0.000000   0.000000  -0.000175
     2  C   -0.000000  -0.000000  -0.000000  -0.000000  -0.000004   0.002808
     3  C    0.000009   0.000000   0.000000   0.000000   0.000004   0.003604
     4  C   -0.000134   0.000048   0.000007   0.000000   0.000020   0.001560
     5  C   -0.000135  -0.000001  -0.000000   0.000000   0.000000  -0.000321
     6  C   -0.000001   0.000000   0.000000  -0.000000  -0.000000   0.000047
     7  C    0.001751   0.000015   0.000000   0.000000  -0.000000  -0.000038
     8  C   -0.022358  -0.000641  -0.000001   0.000000  -0.000000   0.000048
     9  C   -0.088303   0.016851  -0.000112  -0.000001   0.000003  -0.000534
    10  C    0.446447  -0.079204   0.001483   0.000011   0.000000  -0.000060
    11  C   -0.080806   0.442439  -0.023433  -0.000550   0.000021  -0.000252
    12  C    0.017372  -0.088422  -0.080057   0.015929  -0.001749   0.016582
    13  C   -0.000620  -0.019785   0.442652  -0.079488   0.015820  -0.001573
    14  C    0.000013   0.001241  -0.083175   0.436527  -0.087040   0.015299
    15  C   -0.000001  -0.000092   0.016357  -0.084771   0.437044  -0.070298
    16  C    0.000037  -0.000301  -0.002373   0.015208  -0.074954   0.419885
    17  C   -0.001793   0.015256   0.016104  -0.001229   0.015827  -0.066656
    18  C    0.014977  -0.001366  -0.000072   0.000045  -0.000245  -0.021626
    19  H   -0.000000   0.000000   0.000000  -0.000000  -0.000000  -0.000001
    20  H    0.000000  -0.000000  -0.000000  -0.000000  -0.000000   0.000058
    21  H    0.000000   0.000000  -0.000000  -0.000001   0.000058  -0.000809
    22  H   -0.000000  -0.000000  -0.000000   0.000000  -0.000000  -0.000000
    23  H   -0.000026  -0.000000  -0.000000   0.000000  -0.000000   0.000000
    24  H    0.005727  -0.000026  -0.000000  -0.000000   0.000000   0.000000
    25  H    0.680950  -0.013146  -0.000019  -0.000000   0.000000  -0.000000
    26  H   -0.013146   0.681778   0.006252  -0.000022  -0.000001   0.000012
    27  H   -0.000019   0.006252   0.677189  -0.012619  -0.000359   0.000028
    28  H   -0.000000  -0.000022  -0.012619   0.673747  -0.012298  -0.000340
    29  H    0.000000  -0.000001  -0.000359  -0.012298   0.670610  -0.013519
    30  H   -0.000000   0.000012   0.000028  -0.000340  -0.013519   0.662183
 Mulliken charges:
               1
     1  C   -0.037281
     2  C   -0.040554
     3  C   -0.186102
     4  C    0.113357
     5  C    0.168290
     6  C   -0.140197
     7  C   -0.143922
     8  C   -0.145903
     9  C    0.155585
    10  C   -0.145903
    11  C   -0.143922
    12  C    0.168290
    13  C   -0.140197
    14  C   -0.037281
    15  C   -0.040554
    16  C   -0.186102
    17  C    0.113357
    18  C    0.116981
    19  H    0.049851
    20  H    0.050765
    21  H    0.054087
    22  H    0.042147
    23  H    0.039118
    24  H    0.040061
    25  H    0.040061
    26  H    0.039118
    27  H    0.042147
    28  H    0.049851
    29  H    0.050765
    30  H    0.054087
 Sum of Mulliken charges =  -0.00000
 Mulliken charges with hydrogens summed into heavy atoms:
               1
     1  C    0.012570
     2  C    0.010211
     3  C   -0.132015
     4  C    0.113357
     5  C    0.168290
     6  C   -0.098050
     7  C   -0.104805
     8  C   -0.105842
     9  C    0.155585
    10  C   -0.105842
    11  C   -0.104805
    12  C    0.168290
    13  C   -0.098050
    14  C    0.012570
    15  C    0.010211
    16  C   -0.132015
    17  C    0.113357
    18  C    0.116981
 Electronic spatial extent (au):  <R**2>=           4295.1871
 Charge=              0.0000 electrons
 Dipole moment (field-independent basis, Debye):
    X=             -0.0000    Y=             -0.0000    Z=              0.0872  Tot=              0.0872
 Quadrupole moment (field-independent basis, Debye-Ang):
   XX=           -110.2401   YY=            -91.0005   ZZ=            -92.1467
   XY=             -0.1318   XZ=              0.0000   YZ=              0.0000
 Traceless Quadrupole moment (field-independent basis, Debye-Ang):
   XX=            -12.4444   YY=              6.7953   ZZ=              5.6491
   XY=             -0.1318   XZ=              0.0000   YZ=              0.0000
 Octapole moment (field-independent basis, Debye-Ang**2):
  XXX=              0.0000  YYY=             -0.0000  ZZZ=              1.3580  XYY=              0.0000
  XXY=              0.0000  XXZ=             -1.6399  XZZ=             -0.0000  YZZ=             -0.0000
  YYZ=             -1.8899  XYZ=             -7.3642
 Hexadecapole moment (field-independent basis, Debye-Ang**3):
 XXXX=           -166.0384 YYYY=          -3726.0857 ZZZZ=          -1646.3735 XXXY=            -92.6185
 XXXZ=             -0.0000 YYYX=            -91.5450 YYYZ=              0.0000 ZZZX=              0.0000
 ZZZY=              0.0000 XXYY=           -773.7518 XXZZ=           -347.1967 YYZZ=           -892.9413
 XXYZ=             -0.0000 YYXZ=              0.0000 ZZXY=            -14.6504
 N-N= 1.151826184222D+03 E-N=-3.906143633764D+03  KE= 6.855525868061D+02
 Symmetry A    KE= 3.746118846557D+02
 Symmetry B    KE= 3.109407021504D+02
   2 Symmetry operations used in ECPInt.
 ECPInt:  NShTT=    8778 NPrTT=   35250 LenC2=    8372 LenP2D=   23643.
 LDataN:  DoStor=T MaxTD1= 5 Len=  102
 Calling FoFJK, ICntrl=      2127 FMM=F ISym2X=1 I1Cent= 0 IOpClX= 0 NMat=1 NMatS=1 NMatT=0.
 ***** Axes restored to original set *****
 -------------------------------------------------------------------
 Center     Atomic                   Forces (Hartrees/Bohr)
 Number     Number              X              Y              Z
 -------------------------------------------------------------------
      1        6           0.013064018   -0.015670891    0.006499563
      2        6          -0.025047519   -0.006023967   -0.002424405
      3        6           0.001477714    0.011439462   -0.002540355
      4        6          -0.014077214    0.013262116   -0.002639839
      5        6           0.007417369    0.008742096    0.002328970
      6        6           0.005975342    0.020183333   -0.004368918
      7        6          -0.020495095   -0.042263263    0.003155831
      8        6           0.045317357    0.006611958    0.003788474
      9        6          -0.001600188    0.013895277   -0.001033489
     10        6          -0.045568616   -0.004430141   -0.003950751
     11        6           0.029569131   -0.036531395    0.002704677
     12        6          -0.009161446    0.006402648   -0.003455390
     13        6          -0.010456130    0.018725727    0.001474980
     14        6          -0.009071859   -0.018995136   -0.003921209
     15        6           0.025716503    0.000214821    0.002856471
     16        6          -0.004068103    0.011054257    0.000867341
     17        6           0.010668134    0.016340729    0.000438069
     18        6          -0.000148454    0.001289101   -0.000095879
     19        1           0.005230763    0.002497505    0.000564839
     20        1          -0.001774509    0.004236318   -0.002239856
     21        1          -0.005573063   -0.000344799    0.001777620
     22        1           0.001104110   -0.005443175    0.001115258
     23        1           0.004956439    0.000853236    0.001186628
     24        1          -0.003543710   -0.003746354   -0.000119722
     25        1           0.004296385   -0.002789520    0.000605841
     26        1          -0.005000340   -0.000472017   -0.001214982
     27        1           0.000173939   -0.005654800   -0.000289824
     28        1          -0.005649701    0.001140358   -0.000835412
     29        1           0.000732934    0.004808230    0.001567150
     30        1           0.005535810    0.000668288   -0.001801680
 -------------------------------------------------------------------
 Cartesian Forces:  Max     0.045568616 RMS     0.012341863

 GradGradGradGradGradGradGradGradGradGradGradGradGradGradGradGradGradGrad
 Berny optimization.
 FormGI is forming the generalized inverse of G from B-inverse, IUseBI=4.
 Internal  Forces:  Max     0.032654875 RMS     0.007160090
 Search for a local minimum.
 Step number   1 out of a maximum of  180
 All quantities printed in internal units (Hartrees-Bohrs-Radians)
 Mixed Optimization -- RFO/linear search
 Second derivative matrix not updated -- first step.
 ITU=  0
     Eigenvalues ---    0.01471   0.01552   0.01647   0.01696   0.01761
     Eigenvalues ---    0.01929   0.01932   0.01983   0.01985   0.02009
     Eigenvalues ---    0.02013   0.02058   0.02058   0.02111   0.02111
     Eigenvalues ---    0.02190   0.02191   0.02194   0.02195   0.02196
     Eigenvalues ---    0.02203   0.02224   0.02224   0.02248   0.02248
     Eigenvalues ---    0.02278   0.02278   0.15962   0.15962   0.15971
     Eigenvalues ---    0.15972   0.15985   0.15985   0.15996   0.15996
     Eigenvalues ---    0.15997   0.15997   0.15999   0.15999   0.21995
     Eigenvalues ---    0.21995   0.22327   0.22445   0.22633   0.22756
     Eigenvalues ---    0.24112   0.24303   0.24534   0.24656   0.24722
     Eigenvalues ---    0.24841   0.34891   0.34971   0.34971   0.34996
     Eigenvalues ---    0.34996   0.35073   0.35073   0.35173   0.35173
     Eigenvalues ---    0.35238   0.35274   0.35274   0.35406   0.35406
     Eigenvalues ---    0.36899   0.38380   0.39781   0.40182   0.40296
     Eigenvalues ---    0.43042   0.43059   0.44973   0.45018   0.45151
     Eigenvalues ---    0.45155   0.45750   0.45908   0.46268   0.46272
     Eigenvalues ---    0.47363   0.47376   0.47841   0.47845
 RFO step:  Lambda=-2.22995729D-02 EMin= 1.47105642D-02
 Linear search not attempted -- first point.
 Iteration  1 RMS(Cart)=  0.09341814 RMS(Int)=  0.00128386
 Iteration  2 RMS(Cart)=  0.00295955 RMS(Int)=  0.00008703
 Iteration  3 RMS(Cart)=  0.00000283 RMS(Int)=  0.00008702
 Iteration  4 RMS(Cart)=  0.00000000 RMS(Int)=  0.00008702
 ClnCor:  largest displacement from symmetrization is 4.08D-12 for atom    28.
 Variable       Old X    -DE/DX   Delta X   Delta X   Delta X     New X
                                 (Linear)    (Quad)   (Total)
    R1        2.61304   0.02427   0.00000   0.04767   0.04764   2.66068
    R2        2.62544  -0.00337   0.00000  -0.00617  -0.00614   2.61929
    R3        2.05232   0.00576   0.00000   0.01535   0.01535   2.06767
    R4        2.64621  -0.01086   0.00000  -0.02345  -0.02350   2.62272
    R5        2.05395   0.00471   0.00000   0.01260   0.01260   2.06655
    R6        2.68349  -0.00134   0.00000  -0.00371  -0.00373   2.67976
    R7        2.05021   0.00376   0.00000   0.01000   0.01000   2.06021
    R8        2.68747   0.01365   0.00000   0.03114   0.03112   2.71860
    R9        2.77034  -0.01280   0.00000  -0.03466  -0.03466   2.73568
   R10        2.65762   0.00955   0.00000   0.02113   0.02118   2.67880
   R11        2.62715   0.03265   0.00000   0.06717   0.06713   2.69428
   R12        2.05682   0.00361   0.00000   0.00970   0.00970   2.06652
   R13        2.61982  -0.01536   0.00000  -0.02964  -0.02964   2.59017
   R14        2.05557   0.00416   0.00000   0.01116   0.01116   2.06673
   R15        2.63906   0.02926   0.00000   0.06027   0.06031   2.69937
   R16        2.05722   0.00335   0.00000   0.00900   0.00900   2.06622
   R17        2.63906   0.02926   0.00000   0.06027   0.06031   2.69937
   R18        2.68847   0.00503   0.00000   0.00886   0.00897   2.69744
   R19        2.61982  -0.01536   0.00000  -0.02964  -0.02964   2.59017
   R20        2.05722   0.00335   0.00000   0.00900   0.00900   2.06622
   R21        2.62715   0.03265   0.00000   0.06717   0.06713   2.69428
   R22        2.05557   0.00416   0.00000   0.01116   0.01116   2.06673
   R23        2.65762   0.00955   0.00000   0.02113   0.02118   2.67880
   R24        2.68747   0.01365   0.00000   0.03114   0.03112   2.71860
   R25        2.62544  -0.00337   0.00000  -0.00617  -0.00614   2.61929
   R26        2.05682   0.00361   0.00000   0.00970   0.00970   2.06652
   R27        2.61304   0.02427   0.00000   0.04767   0.04764   2.66068
   R28        2.05232   0.00576   0.00000   0.01535   0.01535   2.06767
   R29        2.64621  -0.01086   0.00000  -0.02345  -0.02350   2.62272
   R30        2.05395   0.00471   0.00000   0.01260   0.01260   2.06655
   R31        2.68349  -0.00134   0.00000  -0.00371  -0.00373   2.67976
   R32        2.05021   0.00376   0.00000   0.01000   0.01000   2.06021
   R33        2.77034  -0.01280   0.00000  -0.03466  -0.03466   2.73568
    A1        2.07810   0.00076   0.00000   0.00477   0.00471   2.08280
    A2        2.10325   0.00035   0.00000   0.00165   0.00167   2.10493
    A3        2.10107  -0.00109   0.00000  -0.00618  -0.00616   2.09491
    A4        2.09175   0.00305   0.00000   0.01162   0.01149   2.10324
    A5        2.09834   0.00038   0.00000   0.00468   0.00473   2.10308
    A6        2.09292  -0.00342   0.00000  -0.01617  -0.01612   2.07680
    A7        2.15363  -0.00594   0.00000  -0.02645  -0.02658   2.12705
    A8        2.02200   0.00670   0.00000   0.03395   0.03399   2.05599
    A9        2.10534  -0.00074   0.00000  -0.00683  -0.00678   2.09856
   A10        2.00055   0.01139   0.00000   0.04238   0.04238   2.04293
   A11        2.18662  -0.00903   0.00000  -0.03205  -0.03202   2.15460
   A12        2.09460  -0.00235   0.00000  -0.00997  -0.01001   2.08459
   A13        2.12158  -0.00826   0.00000  -0.02977  -0.02968   2.09190
   A14        2.09577  -0.00149   0.00000  -0.00388  -0.00399   2.09177
   A15        2.06538   0.00974   0.00000   0.03355   0.03357   2.09895
   A16        2.11462  -0.00093   0.00000  -0.00064  -0.00061   2.11401
   A17        2.06606   0.00496   0.00000   0.02494   0.02492   2.09098
   A18        2.10223  -0.00402   0.00000  -0.02426  -0.02428   2.07795
   A19        2.10051  -0.00114   0.00000  -0.00026  -0.00036   2.10015
   A20        2.11020  -0.00243   0.00000  -0.01626  -0.01625   2.09395
   A21        2.07090   0.00361   0.00000   0.01715   0.01717   2.08807
   A22        2.11428  -0.00000   0.00000   0.00157   0.00159   2.11587
   A23        2.06218   0.00403   0.00000   0.02133   0.02132   2.08350
   A24        2.10665  -0.00403   0.00000  -0.02292  -0.02294   2.08371
   A25        2.04500   0.00910   0.00000   0.03597   0.03588   2.08088
   A26        2.11909  -0.00455   0.00000  -0.01799  -0.01794   2.10115
   A27        2.11909  -0.00455   0.00000  -0.01799  -0.01794   2.10115
   A28        2.11428  -0.00000   0.00000   0.00157   0.00159   2.11587
   A29        2.10665  -0.00403   0.00000  -0.02292  -0.02294   2.08371
   A30        2.06218   0.00403   0.00000   0.02133   0.02132   2.08350
   A31        2.10051  -0.00114   0.00000  -0.00026  -0.00036   2.10015
   A32        2.07090   0.00361   0.00000   0.01715   0.01717   2.08807
   A33        2.11020  -0.00243   0.00000  -0.01626  -0.01625   2.09395
   A34        2.06538   0.00974   0.00000   0.03355   0.03357   2.09895
   A35        2.09577  -0.00149   0.00000  -0.00388  -0.00399   2.09177
   A36        2.12158  -0.00826   0.00000  -0.02977  -0.02968   2.09190
   A37        2.11462  -0.00093   0.00000  -0.00064  -0.00061   2.11401
   A38        2.10223  -0.00402   0.00000  -0.02426  -0.02428   2.07795
   A39        2.06606   0.00496   0.00000   0.02494   0.02492   2.09098
   A40        2.07810   0.00076   0.00000   0.00477   0.00471   2.08280
   A41        2.10107  -0.00109   0.00000  -0.00618  -0.00616   2.09491
   A42        2.10325   0.00035   0.00000   0.00165   0.00167   2.10493
   A43        2.09175   0.00305   0.00000   0.01162   0.01149   2.10324
   A44        2.09834   0.00038   0.00000   0.00468   0.00473   2.10308
   A45        2.09292  -0.00342   0.00000  -0.01617  -0.01612   2.07680
   A46        2.15363  -0.00594   0.00000  -0.02645  -0.02658   2.12705
   A47        2.02200   0.00670   0.00000   0.03395   0.03399   2.05599
   A48        2.10534  -0.00074   0.00000  -0.00683  -0.00678   2.09856
   A49        2.00055   0.01139   0.00000   0.04238   0.04238   2.04293
   A50        2.09460  -0.00235   0.00000  -0.00997  -0.01001   2.08459
   A51        2.18662  -0.00903   0.00000  -0.03205  -0.03202   2.15460
   A52        2.02527   0.00967   0.00000   0.03348   0.03353   2.05880
   A53        2.23265  -0.01934   0.00000  -0.06696  -0.06705   2.16559
   A54        2.02527   0.00967   0.00000   0.03348   0.03353   2.05880
    D1        0.04162   0.00025   0.00000   0.00380   0.00392   0.04554
    D2       -3.07996  -0.00022   0.00000  -0.00383  -0.00372  -3.08368
    D3        3.14129   0.00066   0.00000   0.01025   0.01027  -3.13163
    D4        0.01971   0.00019   0.00000   0.00262   0.00263   0.02233
    D5       -0.02846   0.00038   0.00000   0.00157   0.00147  -0.02699
    D6        3.08804   0.00039   0.00000   0.00300   0.00284   3.09088
    D7       -3.12818  -0.00006   0.00000  -0.00507  -0.00503  -3.13321
    D8       -0.01168  -0.00006   0.00000  -0.00364  -0.00366  -0.01534
    D9        0.02806  -0.00096   0.00000  -0.01746  -0.01723   0.01083
   D10       -3.04225  -0.00131   0.00000  -0.02815  -0.02809  -3.07035
   D11       -3.13348  -0.00046   0.00000  -0.00962  -0.00947   3.14023
   D12        0.07939  -0.00080   0.00000  -0.02030  -0.02033   0.05906
   D13       -0.10396   0.00068   0.00000   0.02199   0.02207  -0.08188
   D14        3.09522   0.00053   0.00000   0.01470   0.01469   3.10991
   D15        2.96309   0.00131   0.00000   0.03470   0.03476   2.99785
   D16       -0.12092   0.00116   0.00000   0.02741   0.02738  -0.09355
   D17        0.11564  -0.00033   0.00000  -0.01691  -0.01705   0.09858
   D18       -2.99293  -0.00039   0.00000  -0.01397  -0.01416  -3.00709
   D19       -3.08023  -0.00047   0.00000  -0.01096  -0.01087  -3.09110
   D20        0.09439  -0.00053   0.00000  -0.00802  -0.00798   0.08641
   D21        2.88761   0.00097   0.00000   0.02445   0.02447   2.91208
   D22       -0.25398   0.00097   0.00000   0.02445   0.02447  -0.22951
   D23       -0.19353   0.00041   0.00000   0.01527   0.01535  -0.17818
   D24        2.94806   0.00041   0.00000   0.01527   0.01535   2.96341
   D25       -0.05480   0.00058   0.00000   0.00846   0.00829  -0.04650
   D26        3.11241   0.00044   0.00000   0.00629   0.00623   3.11864
   D27        3.05432   0.00044   0.00000   0.00492   0.00470   3.05902
   D28       -0.06166   0.00030   0.00000   0.00275   0.00263  -0.05902
   D29        0.04680  -0.00016   0.00000  -0.00408  -0.00404   0.04276
   D30        3.12737   0.00069   0.00000   0.00874   0.00856   3.13594
   D31       -3.06281   0.00011   0.00000  -0.00007   0.00005  -3.06276
   D32        0.01776   0.00096   0.00000   0.01274   0.01265   0.03041
   D33       -0.08242   0.00074   0.00000   0.00600   0.00588  -0.07654
   D34        3.07180   0.00090   0.00000   0.00874   0.00864   3.08043
   D35        3.11884   0.00011   0.00000  -0.00538  -0.00553   3.11331
   D36       -0.01013   0.00027   0.00000  -0.00265  -0.00277  -0.01291
   D37        3.11342   0.00076   0.00000   0.00736   0.00721   3.12062
   D38       -0.02818   0.00076   0.00000   0.00736   0.00721  -0.02097
   D39       -0.04112   0.00065   0.00000   0.00488   0.00477  -0.03635
   D40        3.10047   0.00065   0.00000   0.00488   0.00477   3.10524
   D41        3.11342   0.00076   0.00000   0.00736   0.00721   3.12062
   D42       -0.04112   0.00065   0.00000   0.00488   0.00477  -0.03635
   D43       -0.02818   0.00076   0.00000   0.00736   0.00721  -0.02097
   D44        3.10047   0.00065   0.00000   0.00488   0.00477   3.10524
   D45        0.16166  -0.00003   0.00000  -0.01411  -0.01421   0.14745
   D46       -2.97993  -0.00003   0.00000  -0.01411  -0.01421  -2.99414
   D47       -2.97993  -0.00003   0.00000  -0.01411  -0.01421  -2.99414
   D48        0.16166  -0.00003   0.00000  -0.01411  -0.01421   0.14745
   D49       -0.08242   0.00074   0.00000   0.00600   0.00588  -0.07654
   D50        3.11884   0.00011   0.00000  -0.00538  -0.00553   3.11331
   D51        3.07180   0.00090   0.00000   0.00874   0.00864   3.08043
   D52       -0.01013   0.00027   0.00000  -0.00265  -0.00277  -0.01291
   D53       -3.06281   0.00011   0.00000  -0.00007   0.00005  -3.06276
   D54        0.04680  -0.00016   0.00000  -0.00408  -0.00404   0.04276
   D55        0.01776   0.00096   0.00000   0.01274   0.01265   0.03041
   D56        3.12737   0.00069   0.00000   0.00874   0.00856   3.13594
   D57        3.05432   0.00044   0.00000   0.00492   0.00470   3.05902
   D58       -0.06166   0.00030   0.00000   0.00275   0.00263  -0.05902
   D59       -0.05480   0.00058   0.00000   0.00846   0.00829  -0.04650
   D60        3.11241   0.00044   0.00000   0.00629   0.00623   3.11864
   D61       -2.99293  -0.00039   0.00000  -0.01397  -0.01416  -3.00709
   D62        0.09439  -0.00053   0.00000  -0.00802  -0.00798   0.08641
   D63        0.11564  -0.00033   0.00000  -0.01691  -0.01705   0.09858
   D64       -3.08023  -0.00047   0.00000  -0.01096  -0.01087  -3.09110
   D65       -0.02846   0.00038   0.00000   0.00157   0.00147  -0.02699
   D66       -3.12818  -0.00006   0.00000  -0.00507  -0.00503  -3.13321
   D67        3.08804   0.00039   0.00000   0.00300   0.00284   3.09088
   D68       -0.01168  -0.00006   0.00000  -0.00364  -0.00366  -0.01534
   D69        0.04162   0.00025   0.00000   0.00380   0.00392   0.04554
   D70       -3.07996  -0.00022   0.00000  -0.00383  -0.00372  -3.08368
   D71        3.14129   0.00066   0.00000   0.01025   0.01027  -3.13163
   D72        0.01971   0.00019   0.00000   0.00262   0.00263   0.02233
   D73        0.02806  -0.00096   0.00000  -0.01746  -0.01723   0.01083
   D74       -3.04225  -0.00131   0.00000  -0.02815  -0.02809  -3.07035
   D75       -3.13348  -0.00046   0.00000  -0.00962  -0.00947   3.14023
   D76        0.07939  -0.00080   0.00000  -0.02030  -0.02033   0.05906
   D77       -0.10396   0.00068   0.00000   0.02199   0.02207  -0.08188
   D78        3.09522   0.00053   0.00000   0.01470   0.01469   3.10991
   D79        2.96309   0.00131   0.00000   0.03470   0.03476   2.99785
   D80       -0.12092   0.00116   0.00000   0.02741   0.02738  -0.09355
   D81        2.94806   0.00041   0.00000   0.01527   0.01535   2.96341
   D82       -0.19353   0.00041   0.00000   0.01527   0.01535  -0.17818
   D83       -0.25398   0.00097   0.00000   0.02445   0.02447  -0.22951
   D84        2.88761   0.00097   0.00000   0.02445   0.02447   2.91208
         Item               Value     Threshold  Converged?
 Maximum Force            0.032655     0.000450     NO 
 RMS     Force            0.007160     0.000300     NO 
 Maximum Displacement     0.420182     0.001800     NO 
 RMS     Displacement     0.095195     0.001200     NO 
 Predicted change in Energy=-1.198738D-02
 GradGradGradGradGradGradGradGradGradGradGradGradGradGradGradGradGradGrad

                          Input orientation:                          
 ---------------------------------------------------------------------
 Center     Atomic      Atomic             Coordinates (Angstroms)
 Number     Number       Type             X           Y           Z
 ---------------------------------------------------------------------
      1          6           0        3.634927    1.900677   -0.008261
      2          6           0        2.388493    2.475945   -0.321074
      3          6           0        1.228811    1.715160   -0.270467
      4          6           0        1.246023    0.348015    0.105752
      5          6           0        2.533609   -0.251350    0.334908
      6          6           0        3.701873    0.550735    0.298929
      7          6           0        2.633383   -1.656693    0.553592
      8          6           0        1.515014   -2.447109    0.496978
      9          6           0        0.216624   -1.881070    0.311928
     10          6           0       -0.916887   -2.746774    0.233366
     11          6           0       -2.183879   -2.246619    0.080763
     12          6           0       -2.408088   -0.838639    0.090201
     13          6           0       -3.727871   -0.325006    0.028320
     14          6           0       -3.973018    1.035118    0.133945
     15          6           0       -2.894347    1.916620    0.338407
     16          6           0       -1.592013    1.438687    0.379932
     17          6           0       -1.293377    0.063159    0.207705
     18          6           0        0.053764   -0.466874    0.206744
     19          1           0        4.548986    2.501318   -0.038637
     20          1           0        2.320949    3.526043   -0.618781
     21          1           0        0.297661    2.185949   -0.586522
     22          1           0        4.671712    0.085675    0.496390
     23          1           0        3.611755   -2.115259    0.722731
     24          1           0        1.617196   -3.529857    0.609819
     25          1           0       -0.769732   -3.829152    0.281560
     26          1           0       -3.030266   -2.934145   -0.003133
     27          1           0       -4.564004   -1.020993   -0.082786
     28          1           0       -4.999579    1.411391    0.091660
     29          1           0       -3.070965    2.986714    0.478421
     30          1           0       -0.796852    2.148761    0.608158
 ---------------------------------------------------------------------
                    Distance matrix (angstroms):
                    1          2          3          4          5
     1  C    0.000000
     2  C    1.407971   0.000000
     3  C    2.427460   1.387883   0.000000
     4  C    2.851425   2.452653   1.418070   0.000000
     5  C    2.441697   2.808826   2.436418   1.438620   0.000000
     6  C    1.386070   2.411598   2.792155   2.471763   1.417559
     7  C    3.738134   4.231277   3.744500   2.478746   1.425751
     8  C    4.863387   5.066422   4.242094   2.835160   2.425935
     9  C    5.107733   4.909307   3.781082   2.463938   2.832832
    10  C    6.509700   6.205621   4.976618   3.777854   4.259504
    11  C    7.146082   6.585641   5.240754   4.300811   5.128389
    12  C    6.635630   5.844895   4.458588   3.841993   4.982485
    13  C    7.691931   6.736268   5.368449   5.019818   6.269414
    14  C    7.658345   6.538490   5.261657   5.264152   6.635630
    15  C    6.538490   5.353144   4.172738   4.433656   5.844895
    16  C    5.261657   4.172738   2.908007   3.052734   4.458588
    17  C    5.264152   4.433656   3.052734   2.557359   3.841993
    18  C    4.298401   3.793380   2.523834   1.447661   2.492490
    19  H    1.094164   2.179023   3.419846   3.945520   3.431976
    20  H    2.177404   1.093571   2.143219   3.432241   3.901723
    21  H    3.398987   2.127472   1.090217   2.180971   3.433499
    22  H    2.150309   3.405104   3.885468   3.457856   2.170518
    23  H    4.081988   4.864674   4.619196   3.470601   2.187913
    24  H    5.826144   6.126265   5.332537   3.928071   3.415260
    25  H    7.232977   7.077556   5.919316   4.641432   4.869864
    26  H    8.234095   7.663753   6.310883   5.391760   6.186143
    27  H    8.704262   7.786050   6.409248   5.972113   7.151428
    28  H    8.648935   7.475776   6.246299   6.335495   7.718341
[...]
 0216206,0.00116488,0.00060885,0.00000481,-0.00008982,0.00002041,-0.000
 00222,-0.00002324,0.00000716,0.00001467,-0.00001645,0.00000859,-0.0000
 3675,0.00003662,-0.00000278,-0.00004198,0.00091522,-0.00067462,-0.0197
 7834,0.34962015,0.00020267,-0.00061471,-0.00048304,-0.00047357,0.00002
 137,0.00006568,0.00027289,0.00016209,-0.00071510,-0.00091005,-0.000464
 14,-0.00037823,-0.00250213,0.00055454,0.00858527,0.00048511,0.00016300
 ,0.00023693,0.00096512,-0.00182862,0.00515670,-0.00808006,0.03311212,-
 0.04261914,0.00171006,0.00392007,0.00312614,0.00067406,0.00034298,-0.0
 0257723,0.00008092,-0.00017278,-0.00001665,0.00006078,0.00008031,0.000
 01918,0.00000048,-0.00001080,0.00001146,0.00001099,0.00000114,-0.00000
 203,-0.00000802,0.00003242,0.00001227,-0.00017916,-0.00003005,0.000010
 72,0.00002976,0.00039989,0.00015800,-0.00077252,0.00165072,0.00366530,
 0.00001029,-0.00005109,-0.00001546,-0.00000869,0.00002003,0.00005033,0
 .00001280,0.00000992,0.00001381,-0.00003240,0.00006285,0.00018465,0.00
 111490,-0.00064972,-0.00517153,0.00757701,-0.03647196,0.03041570,-0.00
 000115,-0.00000851,0.00000538,0.00003764,-0.00007539,0.00004736,-0.000
 33313,-0.00005546,0.00002004,0.00056497,-0.00105709,0.00019404,0.00013
 640,-0.00012852,0.00006332,-0.00002491,0.00010072,-0.00004168,0.000085
 95,0.00028574,0.00000400,0.00089564,-0.00203444,0.00060221,0.00569870,
 -0.02398159,0.00037441,-0.06332844,0.04242308,-0.00506938,-0.00009980,
 0.03062218,-0.00070981,-0.00469441,0.00044983,-0.00235239,0.00048207,0
 .00114764,0.00022924,-0.00036622,0.00014866,0.00013429,-0.00012631,-0.
 00007417,-0.00004776,0.00021359,-0.00009119,0.00013813,-0.00057934,0.0
 0000011,-0.00006576,-0.00390758,-0.00143722,-0.00086420,-0.00000043,0.
 00000751,0.00000096,-0.00002811,-0.00002033,-0.00000564,0.00000592,-0.
 00000637,0.00001051,-0.00001311,-0.00000914,0.00000050,0.00003036,0.00
 001387,-0.00002550,-0.00049734,0.00060719,-0.00020335,0.06485464,-0.00
 005971,0.00003072,-0.00001315,0.00008304,-0.00004352,0.00005004,-0.000
 33757,-0.00008839,0.00000733,0.00077744,-0.00068126,0.00009539,0.00013
 346,0.00021986,-0.00003812,-0.00003255,0.00001657,-0.00001428,-0.00044
 486,0.00020757,-0.00001826,0.00249859,0.00059358,0.00042651,0.00504003
 ,-0.01570032,0.00093568,0.04207146,-0.32764047,0.00929617,-0.00063840,
 -0.00744463,-0.00033372,0.00184441,0.00156299,0.00060726,-0.00022836,-
 0.00052573,-0.00007891,0.00026774,0.00002172,0.00001205,-0.00001975,0.
 00003640,-0.00000223,0.00001928,-0.00001209,-0.00002525,-0.00035507,0.
 00060926,0.00004330,-0.00336873,0.00003481,-0.00036644,-0.00001072,-0.
 00000069,-0.00000273,-0.00002608,-0.00002685,-0.00000100,0.00001586,0.
 00000739,-0.00000666,-0.00002712,-0.00000210,-0.00000521,-0.00005383,-
 0.00002657,-0.00000705,-0.00090958,0.00068555,-0.00023824,-0.04648284,
 0.34731571,0.00001991,-0.00000357,-0.00000001,-0.00001232,-0.00002645,
 0.00001061,-0.00013930,0.00000200,0.00000859,0.00001286,-0.00027665,0.
 00020574,0.00006050,-0.00009611,0.00003671,0.00000219,0.00001159,0.000
 01126,0.00010760,0.00015848,-0.00004077,0.00043232,-0.00068253,-0.0025
 9079,0.00187954,-0.00105469,0.00354397,-0.00695051,0.00870665,-0.03905
 242,0.00053725,0.00438175,0.00490756,-0.00283501,-0.00006759,0.0085800
 3,0.00055280,0.00008425,0.00026829,0.00002153,0.00057287,-0.00057672,-
 0.00046177,-0.00012599,0.00007641,0.00031869,-0.00020078,-0.00068973,-
 0.00095317,0.00009817,-0.00043879,-0.00001485,-0.00127236,0.00396150,-
 0.00000186,-0.00000114,-0.00000120,-0.00000286,-0.00001442,-0.00001828
 ,-0.00000166,0.00000881,0.00000945,-0.00000479,0.00000101,0.00000519,-
 0.00001336,0.00002150,0.00011772,-0.00013153,0.00011777,0.00015685,0.0
 0657184,-0.01032494,0.02653898,-0.00000705,0.00000875,0.00000073,0.000
 01609,-0.00003521,0.00001377,-0.00005552,-0.00003103,-0.00001184,0.000
 11025,-0.00000968,0.00015173,0.00001582,0.00010418,-0.00001222,0.00001
 269,-0.00003727,0.00000038,-0.00037514,0.00027496,-0.00002529,-0.00053
 278,-0.00125114,0.00008405,-0.00267602,0.00379873,-0.00211678,-0.01774
 841,-0.02036203,-0.00345168,-0.22463606,-0.13251305,-0.03120770,0.0056
 0160,0.00429535,0.00029954,0.00055926,0.00183847,0.00061154,0.00012271
 ,-0.00040375,-0.00005616,0.00027131,0.00012282,0.00010250,0.00009931,0
 .00028800,0.00004456,0.00037575,0.00133547,-0.00032997,0.00009300,0.00
 045644,0.00000963,-0.00000834,-0.00000886,0.00000002,-0.00000415,-0.00
 001269,0.00000187,0.00000649,0.00000027,0.00000493,-0.00000414,0.00000
 731,-0.00000372,-0.00011202,-0.00008355,-0.00002102,0.00001926,0.00006
 218,-0.00001909,0.00104827,0.00021700,0.00102300,0.23762138,0.00003249
 ,-0.00001859,0.00001037,-0.00002596,-0.00000373,-0.00000956,0.00004537
 ,0.00001946,0.00002346,-0.00014090,0.00007486,0.00002365,-0.00001444,-
 0.00011511,0.00002006,0.00000142,0.00005074,-0.00002157,0.00015097,0.0
 0004445,0.00002524,0.00018401,0.00042137,-0.00005084,0.00244061,-0.000
 32307,0.00031742,0.01081011,0.01103877,0.00174965,-0.13253271,-0.16309
 389,-0.02296023,-0.02454346,-0.01444161,-0.00384769,-0.00230932,0.0011
 2977,0.00017339,0.00033860,0.00012755,0.00003171,0.00004281,0.00011415
 ,0.00006554,-0.00162447,-0.00040421,-0.00015388,0.00307012,-0.00418488
 ,-0.00036043,0.00079548,-0.00025940,0.00000808,-0.00000425,0.00000002,
 0.00000128,0.00000018,-0.00000071,-0.00000264,0.00001243,0.00002996,-0
 .00002100,-0.00000578,-0.00000105,-0.00000020,0.00004678,0.00002981,0.
 00001341,-0.00000704,-0.00001519,-0.00000448,-0.00050046,0.00090709,-0
 .00001836,0.14215617,0.16930517,-0.00008800,0.00011053,-0.00006800,0.0
 0016751,0.00003633,0.00004220,-0.00008691,-0.00006462,0.00009283,0.000
 09138,-0.00000516,-0.00086568,0.00000060,0.00025868,0.00009329,-0.0000
 7708,-0.00011677,0.00005111,-0.00016990,-0.00021804,-0.00049419,0.0002
 6967,-0.00023872,0.00026864,-0.00203040,0.00138624,0.00853147,-0.00340
 286,-0.00318583,0.00437194,-0.03084204,-0.02210684,-0.04296680,-0.0010
 4176,-0.00121054,0.00328713,0.00026121,0.00041827,-0.00252825,0.000088
 58,0.00005171,-0.00004854,0.00003006,-0.00000603,-0.00009842,-0.000163
 94,0.00003569,0.00005749,0.00098172,-0.00031983,0.00426245,-0.00011877
 ,0.00023822,-0.00041152,-0.00000226,0.00000293,0.00000570,0.00000319,0
 .00000414,0.00000784,0.00000391,-0.00000983,-0.00001923,0.00000228,0.0
 0000106,-0.00000166,-0.00002594,-0.00002808,-0.00002982,-0.00002736,0.
 00002171,0.00011745,0.00102727,-0.00000419,-0.00526830,0.03500849,0.02
 503451,0.03119968,0.00001104,0.00000272,-0.00000047,-0.00000039,-0.000
 02345,-0.00000181,0.00001542,0.00001905,-0.00000198,-0.00029221,0.0003
 4001,-0.00003847,-0.00007064,-0.00010116,0.00003756,-0.00002792,0.0000
 2909,-0.00002094,-0.00001937,0.00002398,-0.00000708,0.00007014,0.00005
 151,-0.00000573,0.00012904,-0.00008709,0.00005170,0.00014864,0.0003767
 0,0.00007690,0.00093100,-0.00243162,0.00031730,-0.01832822,-0.01999646
 ,-0.00475377,-0.21235676,-0.13254481,-0.03466225,0.00813112,0.00610316
 ,0.00129732,0.00096989,0.00141902,-0.00021346,0.00006829,0.00083937,0.
 00022606,-0.00328112,0.00379351,-0.00032251,-0.00048989,-0.00142242,-0
 .00006302,-0.00000686,-0.00000361,0.00000307,-0.00000508,-0.00000830,0
 .00000111,0.00000314,0.00001634,0.00000630,-0.00001707,-0.00000456,-0.
 00000095,-0.00000362,0.00000549,0.00000165,-0.00002044,0.00002179,-0.0
 0000814,-0.00002226,0.00001966,-0.00002396,0.00017549,0.00135444,0.000
 06039,0.22329802,0.00000257,-0.00001017,0.00000466,-0.00001510,0.00000
 604,0.00000140,0.00000305,-0.00000352,0.00003947,0.00006900,-0.0000885
 0,-0.00004584,0.00003131,0.00000079,0.00000082,0.00001886,-0.00000395,
 0.00001146,0.00000639,0.00005543,-0.00000789,-0.00006526,-0.00005395,-
 0.00000103,0.00020886,0.00023593,0.00003603,-0.00036538,0.00018479,-0.
 00006000,0.00194681,0.00061563,0.00087937,0.00826216,0.00863529,0.0014
 5377,-0.13267056,-0.17245108,-0.03030863,-0.02517585,-0.01435914,-0.00
 490858,0.00293563,-0.00454710,-0.00159842,0.00087044,-0.00028820,0.000
 20352,0.00218617,0.00003294,-0.00055560,0.00052016,0.00032237,-0.00003
 767,-0.00000528,-0.00000325,-0.00000181,0.00000294,-0.00000369,-0.0000
 0204,0.00000176,0.00000524,-0.00002166,-0.00000094,0.00000563,-0.00000
 252,-0.00000835,-0.00000172,-0.00000065,0.00000468,0.00000584,-0.00000
 209,-0.00004834,0.00002731,-0.00004620,-0.00021599,-0.00001178,-0.0000
 5651,0.14257922,0.18128618,0.00000181,-0.00000170,0.00000774,0.0000033
 0,-0.00000836,-0.00000541,-0.00004425,0.00004912,-0.00006604,-0.000000
 46,-0.00001496,0.00021089,-0.00000592,0.00000111,0.00000589,0.00001030
 ,-0.00000847,-0.00003570,0.00000513,0.00000749,-0.00000537,-0.00001360
 ,-0.00001478,0.00002175,0.00001913,0.00001428,-0.00006824,-0.00000708,
 0.00004818,-0.00001881,0.00039638,-0.00004727,-0.00345871,0.00187268,-
 0.00087748,0.00364983,-0.03533343,-0.02831529,-0.04429586,-0.00367717,
 -0.00408461,0.00350525,0.00052276,-0.00163441,0.00746800,-0.00067946,0
 .00112246,-0.00044701,-0.00111785,-0.00184987,0.00485522,0.00000422,-0
 .00008691,0.00011016,-0.00000095,-0.00000039,0.00000366,-0.00000025,-0
 .00000151,-0.00000039,0.00005451,-0.00000450,0.00000495,-0.00000169,0.
 00000161,0.00000190,-0.00000251,-0.00000055,-0.00000150,-0.00000182,0.
 00000546,0.00000458,-0.00005365,0.00001312,0.00019163,-0.00007943,0.00
 009093,0.00017352,0.03754943,0.03447195,0.03354541,-0.00001827,-0.0000
 0038,-0.00000744,0.00000407,0.00004336,-0.00000048,-0.00001615,-0.0000
 2858,0.00008076,0.00001345,0.00002326,-0.00000105,-0.00000579,-0.00001
 163,-0.00000038,-0.00000827,-0.00000948,0.00000151,-0.00001437,-0.0000
 1616,0.00000460,0.00003046,-0.00000996,-0.00000620,-0.00003190,-0.0000
 3655,0.00000140,0.00010035,0.00018526,0.00006289,-0.00034084,-0.000098
 45,-0.00004179,0.00178703,0.00064052,-0.00049892,-0.00174758,-0.000498
 32,-0.00063710,-0.30468669,0.08947462,-0.00971200,-0.01676801,0.011039
 34,0.00041140,-0.00143132,-0.00387374,-0.00182525,0.00063658,-0.000537
 52,-0.00004539,-0.00002386,0.00004339,0.00010909,-0.00001108,-0.000003
 40,-0.00000283,-0.00000080,-0.00000925,0.00000178,-0.00000392,0.000040
 65,-0.00006018,-0.00000865,0.00000377,-0.00000179,-0.00001077,0.000001
 47,-0.00000205,-0.00000112,0.00001015,-0.00000358,-0.00002945,0.000009
 19,-0.00000314,0.00002611,0.00001353,-0.00000686,0.00078859,0.00016425
 ,0.00055408,0.32157449,-0.00001199,0.00003051,-0.00001722,0.00003417,0
 .00003062,0.00000634,0.00001194,-0.00003844,0.00003576,0.00004242,0.00
 002339,0.00003236,0.00002822,0.00005054,-0.00001115,-0.00003181,-0.000
 01639,-0.00000001,-0.00002324,-0.00005713,0.00001064,0.00006744,0.0000
 4141,-0.00000217,-0.00023671,-0.00019334,-0.00008836,0.00020070,-0.000
 45740,0.00012902,0.00124309,0.00043663,0.00003031,-0.00050828,-0.00511
 008,-0.00217516,0.03038836,-0.00524860,0.00108691,0.08891415,-0.090477
 05,-0.00124053,-0.01954669,0.01081410,-0.00033952,-0.00266631,-0.00186
 771,-0.00204626,-0.00022263,-0.00077497,-0.00005198,-0.00019463,0.0002
 1356,0.00017936,-0.00000033,0.00000281,-0.00000227,0.00000091,0.000003
 45,0.00000024,-0.00001026,0.00001782,-0.00002703,0.00000268,-0.0000009
 7,0.00000089,0.00000634,0.00000190,-0.00000270,-0.00000750,0.00000053,
 0.00000030,0.00013232,-0.00005389,0.00006002,-0.00004581,-0.00001916,-
 0.00003850,-0.00056844,0.00114567,0.00090984,-0.09684085,0.09048822,-0
 .00000041,0.00003278,-0.00003338,0.00003223,0.00000902,0.00001427,-0.0
 0008495,-0.00008544,0.00007198,0.00006391,-0.00011076,-0.00000247,-0.0
 0002167,0.00005404,0.00001317,-0.00002791,-0.00004352,0.00000185,0.000
 01129,-0.00002978,-0.00000629,0.00003579,0.00000932,0.00005395,-0.0000
 0401,0.00011996,0.00011029,-0.00002980,-0.00006023,-0.00049710,0.00039
 714,-0.00013901,0.00023180,-0.00030498,-0.00178686,0.00802385,0.004763
 96,-0.00105973,0.00421297,-0.00932182,-0.00165589,-0.03903491,-0.00594
 805,0.00253443,0.00322757,-0.00137076,-0.00216757,0.00510390,-0.000119
 67,-0.00035817,-0.00065807,0.00021017,0.00010823,-0.00084520,-0.000003
 43,0.00000098,-0.00000071,0.00000219,0.00000720,0.00001217,-0.00001999
 ,0.00000984,-0.00001924,0.00000200,0.00000321,0.00000318,-0.00000091,-
 0.00000065,0.00000626,0.00000143,0.00000280,-0.00000172,0.00001954,-0.
 00000600,-0.00002196,-0.00003626,-0.00000372,0.00011758,0.00032821,0.0
 0090594,-0.00462348,0.01112039,0.00262444,0.02735755,-0.00001840,-0.00
 001655,0.00000494,0.00000449,-0.00002209,-0.00001743,-0.00008999,0.000
 03980,0.00003054,0.00006505,-0.00000563,-0.00013993,0.00000948,-0.0000
 6405,0.00003930,0.00001010,-0.00000059,-0.00000324,0.00001522,0.000054
 39,-0.00001265,-0.00000200,0.00010074,-0.00004674,-0.00033443,0.000135
 38,0.00004044,-0.00015903,-0.00006440,-0.00001196,0.00022611,-0.000140
 98,0.00010594,-0.00088803,-0.00012796,-0.00011810,-0.00336472,-0.00239
 012,-0.00137839,0.00859649,-0.02389326,-0.00528619,-0.06755992,0.04918
 592,0.00850416,-0.00190945,0.02980332,0.00704189,-0.00503543,0.0006768
 6,-0.00102094,0.00056494,0.00118869,0.00034708,-0.00000251,-0.00000173
 ,0.00000381,-0.00002202,-0.00001560,0.00001256,0.00001838,0.00005426,-
 0.00000944,-0.00000619,-0.00000362,-0.00000016,-0.00000682,-0.00000106
 ,0.00000399,-0.00003806,0.00002225,-0.00000974,0.00000996,0.00000925,-
 0.00000603,0.00000325,0.00007579,0.00000264,0.00021578,-0.00115653,-0.
 00001886,0.00102047,0.00072474,0.00056433,0.06752870,-0.00001038,0.000
 02482,-0.00001064,0.00001736,0.00002203,0.00001289,0.00000826,-0.00000
 795,0.00001132,-0.00005261,-0.00006290,-0.00000049,0.00003670,0.000015
 77,-0.00001441,-0.00002234,-0.00001502,0.00000862,0.00002314,-0.000043
 99,0.00001090,-0.00000999,-0.00000144,0.00001977,0.00015911,-0.0000932
 0,0.00007522,0.00014391,0.00005235,-0.00003029,-0.00006072,0.00011782,
 0.00021835,-0.00014352,0.00064163,0.00018754,-0.00371496,-0.00008856,-
 0.00192315,0.00641909,-0.01406837,-0.00358577,0.05021285,-0.31241087,-
 0.06306094,-0.00083706,-0.00585285,-0.00251718,0.00188602,0.00149659,-
 0.00134465,-0.00039786,-0.00027187,-0.00014431,0.00000814,0.00000432,-
 0.00000522,0.00000931,0.00001207,-0.00000467,-0.00003317,-0.00003883,0
 .00000521,0.00000769,-0.00000199,0.00000178,0.00001136,0.00000198,-0.0
 0000224,0.00001638,-0.00001474,0.00001314,0.00001735,-0.00002135,-0.00
 001062,-0.00001332,0.00001903,-0.00000484,0.00031253,-0.00071815,-0.00
 006590,-0.00022374,0.00069723,0.00099815,-0.05377015,0.32998884,0.0001
 2583,-0.00010869,0.00007725,-0.00018116,-0.00009019,-0.00004578,0.0002
 8002,0.00011605,-0.00020814,-0.00006941,-0.00009175,0.00015464,-0.0000
 5366,-0.00013405,-0.00001946,0.00007336,0.00015057,-0.00003646,0.00006
 537,0.00013252,-0.00000446,-0.00012582,0.00004069,-0.00006282,0.000297
 37,0.00041793,-0.00041032,-0.00061144,-0.00013712,0.00006292,0.0004231
 4,-0.00045310,-0.00076461,-0.00074308,0.00080161,-0.00067498,-0.001613
 51,-0.00207325,0.00494338,0.00314754,-0.00528580,0.00237789,0.00664860
 ,-0.06386336,-0.05229535,0.00118931,-0.00085669,0.00384200,-0.00146431
 ,-0.00008434,0.00783680,0.00064456,-0.00035285,0.00036304,0.00000035,0
 .00000131,0.00001301,0.00000985,0.00000283,-0.00001722,0.00010955,-0.0
 0002669,0.00008293,-0.00000061,0.00000241,-0.00000097,-0.00000069,0.00
 000385,0.00000782,-0.00000854,-0.00000046,-0.00002044,-0.00001206,0.00
 000134,0.00005303,-0.00001329,0.00001375,0.00003282,0.00011351,-0.0004
 6062,0.00022835,0.00046450,0.00096642,-0.00294911,-0.00917775,0.069843
 13,0.04193402,0.00001522,-0.00022837,-0.00019683,-0.00075587,-0.000159
 60,-0.00021969,-0.00287165,-0.00050677,0.00414635,0.00009622,0.0013451
 6,-0.00018420,0.00015154,-0.00004353,-0.00021261,-0.00001510,0.0000124
 8,0.00005256,-0.00003361,-0.00002560,-0.00000406,0.00004367,-0.0000635
 3,0.00005009,0.00005600,-0.00017753,-0.00012638,0.00012895,0.00006306,
 -0.00000200,0.00034379,0.00026604,-0.00010785,0.00063496,0.00203356,-0
 .00064293,0.00003632,0.00096840,0.00033054,-0.00387873,0.00337034,-0.0
 0034034,-0.01791310,-0.02055632,-0.00772576,-0.20633975,-0.13223333,-0
 .06024371,0.00871192,0.00462417,0.00217042,-0.00062467,-0.00022659,0.0
 0075035,0.00000526,0.00000428,-0.00001765,0.00001856,0.00006100,0.0000
 9167,-0.00362438,0.00065184,0.00269767,0.00000634,0.00000595,0.0000517
 9,0.00001045,-0.00001682,0.00000459,0.00000793,-0.00001562,0.00000266,
 -0.00001212,-0.00001123,0.00001609,-0.00001841,0.00013747,0.00008519,-
 0.00001375,-0.00008669,0.00004466,-0.00082275,-0.00088196,-0.00025800,
 0.00114858,0.00000059,0.00048246,0.22550818,-0.00014824,0.00010431,-0.
 00020138,-0.00002181,0.00029075,-0.00002829,-0.00009839,0.00001520,0.0
 0146181,0.00015896,-0.00004095,-0.00023190,0.00050478,-0.00008478,0.00
 004247,-0.00023906,-0.00013353,-0.00002978,0.00004739,0.00000560,0.000
 01685,-0.00008680,0.00010296,-0.00004191,-0.00005273,-0.00023689,0.000
 04301,0.00005502,0.00002648,0.00000799,-0.00142745,-0.00025240,-0.0000
 8354,0.00326102,-0.00413351,-0.00243782,0.00063521,-0.00015098,0.00017
 689,0.00232631,0.00044072,-0.00181413,0.01022357,0.01051888,0.00236563
 ,-0.13136352,-0.17398007,-0.05529829,-0.02261524,-0.01453461,-0.006519
 43,-0.00146798,0.00090227,0.00104083,-0.00005257,0.00000907,-0.0000192
 2,-0.00004232,-0.00003158,0.00006721,-0.00137726,0.00128425,0.00013160
 ,-0.00001579,0.00000687,0.00001628,-0.00000483,0.00002957,0.00000318,0
 .00000788,0.00000528,-0.00000821,0.00005489,-0.00000869,-0.00000248,0.
 00005731,-0.00041982,0.00001431,-0.00011569,-0.00002089,0.00028140,0.0
 0050526,0.00031677,0.00008700,-0.00039709,0.00061761,0.00152455,0.1416
 8917,0.17935211,-0.00002855,0.00019791,-0.00019076,0.00022783,0.000284
 43,-0.00000217,0.00155346,-0.00038668,-0.00028986,-0.00004960,-0.00093
 142,0.00011460,-0.00005395,0.00028806,-0.00001631,-0.00023280,-0.00012
 025,0.00002127,0.00000904,-0.00018778,-0.00000134,0.00019993,0.0001094
 1,0.00015554,-0.00007823,0.00084000,-0.00003996,-0.00024583,-0.0001402
 9,-0.00022728,-0.00041412,-0.00022562,0.00017908,0.00011291,-0.0016102
 6,0.00479420,0.00096411,-0.00037125,-0.00059627,-0.00022741,-0.0007071
 9,0.00747896,-0.00012828,-0.00107410,0.00452789,-0.05956754,-0.0563284
 7,-0.05943889,-0.00603617,-0.00056131,0.00252727,0.00118328,0.00018446
 ,-0.00280446,-0.00005726,0.00000846,-0.00001967,-0.00000295,0.00001071
 ,0.00007549,0.00286476,-0.00000883,-0.00215949,0.00000361,0.00002235,0
 .00000012,0.00000127,0.00001408,-0.00002280,0.00000764,0.00000924,0.00
 000955,0.00000815,-0.00000182,0.00001547,0.00002775,-0.00014784,0.0000
 8728,0.00005401,0.00010935,-0.00096219,0.00004405,-0.00003002,0.000131
 28,0.00055595,0.00131928,-0.00449980,0.05930494,0.05943538,0.05115326\
 \-0.00000462,0.00003160,-0.00000389,0.00004403,-0.00000214,0.00000317,
 0.00000076,-0.00005343,0.00000498,-0.00003655,0.00003612,0.00001570,0.
 00001738,0.00001803,0.00000540,-0.00001591,-0.00001163,-0.00001242,-0.
 00003094,-0.00002414,-0.00000469,0.00004255,-0.00001031,0.00000767,-0.
 00000720,0.00006256,-0.00000465,-0.00003898,-0.00002067,-0.00000537,0.
 00003551,-0.00001557,0.00000764,-0.00002091,0.00001264,-0.00000768,0.0
 0001792,-0.00000579,0.00001371,-0.00000271,0.00003205,-0.00000084,-0.0
 0004235,-0.00001248,-0.00000208,0.00001143,-0.00005236,0.00000289,0.00
 002770,0.00004076,-0.00002142,0.00000843,-0.00007324,0.00000545,-0.000
 01396,-0.00000436,0.00000595,-0.00001190,-0.00000729,-0.00000460,-0.00
 001599,0.00001675,0.00000017,-0.00000625,-0.00001396,0.00000397,0.0000
 0655,0.00002145,-0.00000548,-0.00002163,0.00000393,-0.00000890,0.00002
 003,0.00000997,0.00000786,-0.00001132,0.00001997,0.00000240,0.00000931
 ,-0.00001261,-0.00000200,0.00001468,-0.00000191,-0.00000548,0.00001316
 ,-0.00000366,0.00000542,0.00001179,0.00001972,-0.00000289\\\@
 The archive entry for this job was punched.


 SEEN ON A WALL AT THE UNIVERSITY OF ILLINOIS AT CHICAGO CIRCLE:

 TO DO IS TO BE  -- SOCRATES
 TO BE IS TO DO  -- SARTRE
 OO BE DO BE DO  -- SINATRA
 Job cpu time:       0 days  0 hours 36 minutes 22.5 seconds.
 Elapsed time:       0 days  0 hours  4 minutes 32.8 seconds.
 File lengths (MBytes):  RWF=    174 Int=      0 D2E=      0 Chk=      8 Scr=      1
 Normal termination of Gaussian 16 at Tue Oct  8 23:32:22 2024.
