 Entering Gaussian System, Link 0=g16
 Initial command:
 /home/software/g16/l1.exe "/home/software/g16tmp/Gau-66662.inp" -scrdir="/home/software/g16tmp/"
 Default is to use a total of   8 processors:
                                8 via shared-memory
                                1 via Linda
 Entering Link 1 = /home/software/g16/l1.exe PID=     66663.
  
 Copyright (c) 1988-2019, Gaussian, Inc.  All Rights Reserved.
  
 This is part of the Gaussian(R) 16 program.  It is based on
 the Gaussian(R) 09 system (copyright 2009, Gaussian, Inc.),
 the Gaussian(R) 03 system (copyright 2003, Gaussian, Inc.),
 the Gaussian(R) 98 system (copyright 1998, Gaussian, Inc.),
 the Gaussian(R) 94 system (copyright 1995, Gaussian, Inc.),
 the Gaussian 92(TM) system (copyright 1992, Gaussian, Inc.),
 the Gaussian 90(TM) system (copyright 1990, Gaussian, Inc.),
 the Gaussian 88(TM) system (copyright 1988, Gaussian, Inc.),
 the Gaussian 86(TM) system (copyright 1986, Carnegie Mellon
 University), and the Gaussian 82(TM) system (copyright 1983,
 Carnegie Mellon University). Gaussian is a federally registered
 trademark of Gaussian, Inc.
  
 This software contains proprietary and confidential information,
 including trade secrets, belonging to Gaussian, Inc.
  
 This software is provided under written license and may be
 used, copied, transmitted, or stored only in accord with that
 written license.
  
 The following legend is applicable only to US Government
 contracts under FAR:
  
                    RESTRICTED RIGHTS LEGEND
  
 Use, reproduction and disclosure by the US Government is
 subject to restrictions as set forth in subparagraphs (a)
 and (c) of the Commercial Computer Software - Restricted
 Rights clause in FAR 52.227-19.
  
 Gaussian, Inc.
 340 Quinnipiac St., Bldg. 40, Wallingford CT 06492
  
  
 ---------------------------------------------------------------
 Warning -- This program may not be used in any manner that
 competes with the business of Gaussian, Inc. or will provide
 assistance to any competitor of Gaussian, Inc.  The licensee
 of this program is prohibited from giving any competitor of
 Gaussian, Inc. access to this program.  By using this program,
 the user acknowledges that Gaussian, Inc. is engaged in the
 business of creating and licensing software in the field of
 computational chemistry and represents and warrants to the
 licensee that it is not a competitor of Gaussian, Inc. and that
 it will not use this program in any manner prohibited above.
 ---------------------------------------------------------------
  

 Cite this work as:
 Gaussian 16, Revision C.01,
 M. J. Frisch, G. W. Trucks, H. B. Schlegel, G. E. Scuseria, 
 M. A. Robb, J. R. Cheeseman, G. Scalmani, V. Barone, 
 G. A. Petersson, H. Nakatsuji, X. Li, M. Caricato, A. V. Marenich, 
 J. Bloino, B. G. Janesko, R. Gomperts, B. Mennucci, H. P. Hratchian, 
 J. V. Ortiz, A. F. Izmaylov, J. L. Sonnenberg, D. Williams-Young, 
 F. Ding, F. Lipparini, F. Egidi, J. Goings, B. Peng, A. Petrone, 
 T. Henderson, D. Ranasinghe, V. G. Zakrzewski, J. Gao, N. Rega, 
 G. Zheng, W. Liang, M. Hada, M. Ehara, K. Toyota, R. Fukuda, 
 J. Hasegawa, M. Ishida, T. Nakajima, Y. Honda, O. Kitao, H. Nakai, 
 T. Vreven, K. Throssell, J. A. Montgomery, Jr., J. E. Peralta, 
 F. Ogliaro, M. J. Bearpark, J. J. Heyd, E. N. Brothers, K. N. Kudin, 
 V. N. Staroverov, T. A. Keith, R. Kobayashi, J. Normand, 
 K. Raghavachari, A. P. Rendell, J. C. Burant, S. S. Iyengar, 
 J. Tomasi, M. Cossi, J. M. Millam, M. Klene, C. Adamo, R. Cammi, 
 J. W. Ochterski, R. L. Martin, K. Morokuma, O. Farkas, 
 J. B. Foresman, and D. J. Fox, Gaussian, Inc., Wallingford CT, 2019.
 
 ******************************************
 Gaussian 16:  ES64L-G16RevC.01  3-Jul-2019
                19-Dec-2023 
 ******************************************
 %nprocshared=16
 Will use up to   16 processors via shared memory.
 %mem=640MB
 ----------------------------------------------------------------------
 #N opt freq B3LYP/def2SVPP symm=veryloose em=gd3bj scale=0.961 press=0
 .987
 ----------------------------------------------------------------------
 1/18=20,19=15,26=3,38=1,113=-987000,114=961000/1,3;
 2/9=110,12=2,17=2,18=2,40=1/2;
 3/5=43,7=202,11=2,25=1,30=1,71=1,74=-5,124=41/1,2,3;
 4//1;
 5/5=2,38=5/2;
 6/7=2,8=2,9=2,10=2,28=1/1;
 7//1,2,3,16;
 1/18=20,19=15,26=3/3(2);
 2/9=110/2;
 99//99;
 2/9=110/2;
 3/5=43,7=202,11=2,25=1,30=1,71=1,74=-5,124=41/1,2,3;
 4/5=5,16=3,69=1/1;
 5/5=2,38=5/2;
 7//1,2,3,16;
 1/18=20,19=15,26=3/3(-5);
 2/9=110/2;
 6/7=2,8=2,9=2,10=2,19=2,28=1/1;
 99/9=1/99;
 -----
 C=C_1
 -----
 Symbolic Z-matrix:
 Charge =  0 Multiplicity = 1
 C                     1.00268  -0.05165   0.08486 
 C                     2.33488  -0.05165   0.08486 
 H                     0.45275  -0.74161  -0.54717 
 H                     0.45275   0.6383    0.7169 
 H                     2.88481  -0.74161  -0.54717 
 H                     2.88481   0.6383    0.7169 
 

 GradGradGradGradGradGradGradGradGradGradGradGradGradGradGradGradGradGrad
 Berny optimization.
 Initialization pass.
                           ----------------------------
                           !    Initial Parameters    !
                           ! (Angstroms and Degrees)  !
 --------------------------                            --------------------------
 ! Name  Definition              Value          Derivative Info.                !
 --------------------------------------------------------------------------------
 ! R1    R(1,2)                  1.3322         estimate D2E/DX2                !
 ! R2    R(1,3)                  1.0853         estimate D2E/DX2                !
 ! R3    R(1,4)                  1.0853         estimate D2E/DX2                !
 ! R4    R(2,5)                  1.0853         estimate D2E/DX2                !
 ! R5    R(2,6)                  1.0853         estimate D2E/DX2                !
 ! A1    A(2,1,3)              120.444          estimate D2E/DX2                !
 ! A2    A(2,1,4)              120.444          estimate D2E/DX2                !
 ! A3    A(3,1,4)              119.1119         estimate D2E/DX2                !
 ! A4    A(1,2,5)              120.444          estimate D2E/DX2                !
 ! A5    A(1,2,6)              120.444          estimate D2E/DX2                !
 ! A6    A(5,2,6)              119.1119         estimate D2E/DX2                !
 ! D1    D(3,1,2,5)              0.0            estimate D2E/DX2                !
 ! D2    D(3,1,2,6)           -179.9991         estimate D2E/DX2                !
 ! D3    D(4,1,2,5)            179.9991         estimate D2E/DX2                !
 ! D4    D(4,1,2,6)              0.0            estimate D2E/DX2                !
 --------------------------------------------------------------------------------
 Trust Radius=3.00D-01 FncErr=1.00D-07 GrdErr=1.00D-06 EigMax=2.50D+02 EigMin=1.00D-04
 Number of steps in this run=     25 maximum allowed number of steps=    100.
 GradGradGradGradGradGradGradGradGradGradGradGradGradGradGradGradGradGrad

                          Input orientation:                          
 ---------------------------------------------------------------------
 Center     Atomic      Atomic             Coordinates (Angstroms)
 Number     Number       Type             X           Y           Z
 ---------------------------------------------------------------------
      1          6           0        1.002680   -0.051650    0.084860
      2          6           0        2.334880   -0.051650    0.084860
      3          1           0        0.452750   -0.741610   -0.547170
      4          1           0        0.452750    0.638300    0.716900
      5          1           0        2.884810   -0.741610   -0.547170
      6          1           0        2.884810    0.638300    0.716900
 ---------------------------------------------------------------------
                    Distance matrix (angstroms):
                    1          2          3          4          5
     1  C    0.000000
     2  C    1.332200   0.000000
     3  H    1.085325   2.101885   0.000000
     4  H    1.085324   2.101885   1.871370   0.000000
     5  H    2.101885   1.085325   2.432060   3.068703   0.000000
     6  H    2.101885   1.085324   3.068703   2.432060   1.871370
                    6
     6  H    0.000000
 Stoichiometry    C2H4
 Framework group  D2H[C2(C.C),SG"(H4)]
 Deg. of freedom     3
 Full point group                 D2H     NOp   8
 Largest Abelian subgroup         D2H     NOp   8
 Largest concise Abelian subgroup D2      NOp   4
                         Standard orientation:                         
 ---------------------------------------------------------------------
 Center     Atomic      Atomic             Coordinates (Angstroms)
 Number     Number       Type             X           Y           Z
 ---------------------------------------------------------------------
      1          6           0        0.666100   -0.000000    0.000000
      2          6           0       -0.666100    0.000000    0.000000
      3          1           0        1.216030   -0.935685    0.000000
      4          1           0        1.216030    0.935685   -0.000000
      5          1           0       -1.216030   -0.935685   -0.000000
      6          1           0       -1.216030    0.935685    0.000000
 ---------------------------------------------------------------------
 Rotational constants (GHZ):         143.1899877          30.4266635          25.0943302
 Standard basis: def2SVPP (5D, 7F)
 There are    10 symmetry adapted cartesian basis functions of AG  symmetry.
 There are     5 symmetry adapted cartesian basis functions of B1G symmetry.
 There are     3 symmetry adapted cartesian basis functions of B2G symmetry.
 There are     1 symmetry adapted cartesian basis functions of B3G symmetry.
 There are     1 symmetry adapted cartesian basis functions of AU  symmetry.
 There are     3 symmetry adapted cartesian basis functions of B1U symmetry.
 There are     5 symmetry adapted cartesian basis functions of B2U symmetry.
 There are    10 symmetry adapted cartesian basis functions of B3U symmetry.
 There are     9 symmetry adapted basis functions of AG  symmetry.
 There are     5 symmetry adapted basis functions of B1G symmetry.
 There are     3 symmetry adapted basis functions of B2G symmetry.
 There are     1 symmetry adapted basis functions of B3G symmetry.
 There are     1 symmetry adapted basis functions of AU  symmetry.
 There are     3 symmetry adapted basis functions of B1U symmetry.
 There are     5 symmetry adapted basis functions of B2U symmetry.
 There are     9 symmetry adapted basis functions of B3U symmetry.
    36 basis functions,    66 primitive gaussians,    38 cartesian basis functions
     8 alpha electrons        8 beta electrons
       nuclear repulsion energy        33.3896619143 Hartrees.
 NAtoms=    6 NActive=    6 NUniq=    2 SFac= 4.00D+00 NAtFMM=   60 NAOKFM=F Big=F
 Integral buffers will be    131072 words long.
 Raffenetti 2 integral format.
 Two-electron integral symmetry is turned on.
 Nuclear repulsion after empirical dispersion term =       33.3857118575 Hartrees.
 One-electron integrals computed using PRISM.
   8 Symmetry operations used in ECPInt.
 ECPInt:  NShTT=     210 NPrTT=     858 LenC2=     211 LenP2D=     801.
 LDataN:  DoStor=T MaxTD1= 4 Len=   56
 NBasis=    36 RedAO= T EigKep=  4.56D-03  NBF=     9     5     3     1     1     3     5     9
 NBsUse=    36 1.00D-06 EigRej= -1.00D+00 NBFU=     9     5     3     1     1     3     5     9
 ExpMin= 1.22D-01 ExpMax= 1.24D+03 ExpMxC= 1.86D+02 IAcc=3 IRadAn=         5 AccDes= 0.00D+00
 Harris functional with IExCor=  402 and IRadAn=       5 diagonalized for initial guess.
 HarFok:  IExCor=  402 AccDes= 0.00D+00 IRadAn=         5 IDoV= 1 UseB2=F ITyADJ=14
 ICtDFT=  3500011 ScaDFX=  1.000000  1.000000  1.000000  1.000000
 FoFCou: FMM=F IPFlag=           0 FMFlag=      100000 FMFlg1=           0
         NFxFlg=           0 DoJE=T BraDBF=F KetDBF=T FulRan=T
         wScrn=  0.000000 ICntrl=       500 IOpCl=  0 I1Cent=   200000004 NGrid=           0
         NMat0=    1 NMatS0=      1 NMatT0=    0 NMatD0=    1 NMtDS0=    0 NMtDT0=    0
 Petite list used in FoFCou.
 Initial guess orbital symmetries:
       Occupied  (AG) (B3U) (AG) (B3U) (B2U) (AG) (B1G) (B1U)
       Virtual   (B2G) (AG) (B2U) (B3U) (B1G) (B3U) (AG) (B2U)
                 (AG) (B1U) (B3U) (B2G) (AG) (B2U) (B1G) (B3U)
                 (B3U) (B1G) (B1U) (B3G) (AU) (AG) (B2U) (AG) (B3U)
                 (B2G) (B1G) (B3U)
 The electronic state of the initial guess is 1-AG.
 Keep R1 ints in memory in symmetry-blocked form, NReq=14053953.
 Requested convergence on RMS density matrix=1.00D-08 within 128 cycles.
 Requested convergence on MAX density matrix=1.00D-06.
 Requested convergence on             energy=1.00D-06.
 No special actions if energy rises.
 Integral accuracy reduced to 1.0D-05 until final iterations.
 Initial convergence to 1.0D-05 achieved.  Increase integral accuracy.
 SCF Done:  E(RB3LYP) =  -78.5250478750     A.U. after    8 cycles
            NFock=  8  Conv=0.92D-08     -V/T= 2.0111

 **********************************************************************

            Population analysis using the SCF Density.

 **********************************************************************

 Orbital symmetries:
       Occupied  (AG) (B3U) (AG) (B3U) (B2U) (AG) (B1G) (B1U)
       Virtual   (B2G) (AG) (B2U) (B3U) (B1G) (B3U) (AG) (AG) (B2U)
                 (B1U) (B3U) (B2G) (AG) (B3U) (B2U) (B1G) (B3U)
                 (B1G) (B1U) (B3G) (AU) (AG) (B2U) (AG) (B3U) (B2G)
                 (B1G) (B3U)
 The electronic state is 1-AG.
 Alpha  occ. eigenvalues --  -10.18219 -10.18144  -0.75347  -0.57340  -0.47523
 Alpha  occ. eigenvalues --   -0.41813  -0.36186  -0.27555
 Alpha virt. eigenvalues --    0.00740   0.08195   0.10390   0.11786   0.18557
 Alpha virt. eigenvalues --    0.32250   0.40181   0.43316   0.45278   0.48819
 Alpha virt. eigenvalues --    0.54767   0.57542   0.67536   0.69441   0.70345
 Alpha virt. eigenvalues --    0.73433   0.82329   1.10320   1.45437   1.53503
 Alpha virt. eigenvalues --    1.82178   1.84546   1.87071   2.02827   2.19759
 Alpha virt. eigenvalues --    2.36934   2.60032   2.68220
          Condensed to atoms (all electrons):
               1          2          3          4          5          6
     1  C    4.742634   0.754707   0.373624   0.373624  -0.021931  -0.021931
     2  C    0.754707   4.742634  -0.021931  -0.021931   0.373624   0.373624
     3  H    0.373624  -0.021931   0.605990  -0.049318  -0.017869   0.009141
     4  H    0.373624  -0.021931  -0.049318   0.605990   0.009141  -0.017869
     5  H   -0.021931   0.373624  -0.017869   0.009141   0.605990  -0.049318
     6  H   -0.021931   0.373624   0.009141  -0.017869  -0.049318   0.605990
 Mulliken charges:
               1
     1  C   -0.200727
     2  C   -0.200727
     3  H    0.100363
     4  H    0.100363
     5  H    0.100363
     6  H    0.100363
 Sum of Mulliken charges =  -0.00000
 Mulliken charges with hydrogens summed into heavy atoms:
               1
     1  C   -0.000000
     2  C   -0.000000
 Electronic spatial extent (au):  <R**2>=             82.3387
 Charge=             -0.0000 electrons
 Dipole moment (field-independent basis, Debye):
    X=             -0.0000    Y=             -0.0000    Z=             -0.0000  Tot=              0.0000
 Quadrupole moment (field-independent basis, Debye-Ang):
   XX=            -12.5126   YY=            -12.2425   ZZ=            -15.1882
   XY=              0.0000   XZ=              0.0000   YZ=              0.0000
 Traceless Quadrupole moment (field-independent basis, Debye-Ang):
   XX=              0.8019   YY=              1.0719   ZZ=             -1.8738
   XY=              0.0000   XZ=              0.0000   YZ=              0.0000
 Octapole moment (field-independent basis, Debye-Ang**2):
  XXX=             -0.0000  YYY=             -0.0000  ZZZ=             -0.0000  XYY=             -0.0000
  XXY=             -0.0000  XXZ=             -0.0000  XZZ=             -0.0000  YZZ=             -0.0000
  YYZ=             -0.0000  XYZ=             -0.0000
 Hexadecapole moment (field-independent basis, Debye-Ang**3):
 XXXX=            -67.9869 YYYY=            -26.7678 ZZZZ=            -16.6044 XXXY=              0.0000
 XXXZ=             -0.0000 YYYX=              0.0000 YYYZ=              0.0000 ZZZX=             -0.0000
 ZZZY=              0.0000 XXYY=            -13.8427 XXZZ=            -14.6550 YYZZ=             -7.7637
 XXYZ=              0.0000 YYXZ=              0.0000 ZZXY=              0.0000
 N-N= 3.338571185749D+01 E-N=-2.478957770372D+02  KE= 7.766658310146D+01
 Symmetry AG   KE= 3.741967234525D+01
 Symmetry B1G  KE= 2.093536554084D+00
 Symmetry B2G  KE= 5.733729511583D-32
 Symmetry B3G  KE= 1.636065478270D-31
 Symmetry AU   KE= 1.375066793353D-31
 Symmetry B1U  KE= 2.081430749749D+00
 Symmetry B2U  KE= 1.865630179942D+00
 Symmetry B3U  KE= 3.420631327243D+01
   8 Symmetry operations used in ECPInt.
 ECPInt:  NShTT=     210 NPrTT=     858 LenC2=     211 LenP2D=     801.
 LDataN:  DoStor=T MaxTD1= 5 Len=  102
 Calling FoFJK, ICntrl=      2127 FMM=F ISym2X=1 I1Cent= 0 IOpClX= 0 NMat=1 NMatS=1 NMatT=0.
 ***** Axes restored to original set *****
 -------------------------------------------------------------------
 Center     Atomic                   Forces (Hartrees/Bohr)
 Number     Number              X              Y              Z
 -------------------------------------------------------------------
      1        6           0.007794302    0.000000000    0.000000000
      2        6          -0.007794302   -0.000000000   -0.000000000
      3        1          -0.007093434   -0.003874182   -0.003548954
      4        1          -0.007093434    0.003874182    0.003548954
      5        1           0.007093434   -0.003874182   -0.003548954
      6        1           0.007093434    0.003874182    0.003548954
 -------------------------------------------------------------------
 Cartesian Forces:  Max     0.007794302 RMS     0.004905705

 GradGradGradGradGradGradGradGradGradGradGradGradGradGradGradGradGradGrad
 Berny optimization.
 FormGI is forming the generalized inverse of G from B-inverse, IUseBI=4.
 Internal  Forces:  Max     0.008123807 RMS     0.004978167
 Search for a local minimum.
 Step number   1 out of a maximum of   25
 All quantities printed in internal units (Hartrees-Bohrs-Radians)
 Mixed Optimization -- RFO/linear search
 Second derivative matrix not updated -- first step.
 The second derivative matrix:
                          R1        R2        R3        R4        R5
           R1           0.58989
           R2           0.00000   0.35359
           R3           0.00000   0.00000   0.35359
           R4           0.00000   0.00000   0.00000   0.35359
           R5           0.00000   0.00000   0.00000   0.00000   0.35359
           A1           0.00000   0.00000   0.00000   0.00000   0.00000
           A2           0.00000   0.00000   0.00000   0.00000   0.00000
           A3           0.00000   0.00000   0.00000   0.00000   0.00000
           A4           0.00000   0.00000   0.00000   0.00000   0.00000
           A5           0.00000   0.00000   0.00000   0.00000   0.00000
           A6           0.00000   0.00000   0.00000   0.00000   0.00000
           D1           0.00000   0.00000   0.00000   0.00000   0.00000
           D2           0.00000   0.00000   0.00000   0.00000   0.00000
           D3           0.00000   0.00000   0.00000   0.00000   0.00000
           D4           0.00000   0.00000   0.00000   0.00000   0.00000
                          A1        A2        A3        A4        A5
           A1           0.16000
           A2           0.00000   0.16000
           A3           0.00000   0.00000   0.16000
           A4           0.00000   0.00000   0.00000   0.16000
           A5           0.00000   0.00000   0.00000   0.00000   0.16000
           A6           0.00000   0.00000   0.00000   0.00000   0.00000
           D1           0.00000   0.00000   0.00000   0.00000   0.00000
           D2           0.00000   0.00000   0.00000   0.00000   0.00000
           D3           0.00000   0.00000   0.00000   0.00000   0.00000
           D4           0.00000   0.00000   0.00000   0.00000   0.00000
                          A6        D1        D2        D3        D4
           A6           0.16000
           D1           0.00000   0.02986
           D2           0.00000   0.00000   0.02986
           D3           0.00000   0.00000   0.00000   0.02986
           D4           0.00000   0.00000   0.00000   0.00000   0.02986
 ITU=  0
     Eigenvalues ---    0.02986   0.02986   0.02986   0.16000   0.16000
     Eigenvalues ---    0.16000   0.16000   0.35359   0.35359   0.35359
     Eigenvalues ---    0.35359   0.58989
 RFO step:  Lambda=-1.22797262D-03 EMin= 2.98561983D-02
 Linear search not attempted -- first point.
 Iteration  1 RMS(Cart)=  0.02236341 RMS(Int)=  0.00018379
 Iteration  2 RMS(Cart)=  0.00020727 RMS(Int)=  0.00000002
 Iteration  3 RMS(Cart)=  0.00000002 RMS(Int)=  0.00000001
 ClnCor:  largest displacement from symmetrization is 5.50D-09 for atom     3.
 Variable       Old X    -DE/DX   Delta X   Delta X   Delta X     New X
                                 (Linear)    (Quad)   (Total)
    R1        2.51749   0.00639   0.00000   0.01081   0.01081   2.52831
    R2        2.05097   0.00812   0.00000   0.02290   0.02290   2.07386
    R3        2.05097   0.00812   0.00000   0.02290   0.02290   2.07386
    R4        2.05097   0.00812   0.00000   0.02290   0.02290   2.07386
    R5        2.05097   0.00812   0.00000   0.02290   0.02290   2.07386
    A1        2.10214   0.00236   0.00000   0.01464   0.01464   2.11679
    A2        2.10214   0.00236   0.00000   0.01464   0.01464   2.11679
    A3        2.07890  -0.00472   0.00000  -0.02929  -0.02929   2.04961
    A4        2.10214   0.00236   0.00000   0.01464   0.01464   2.11679
    A5        2.10214   0.00236   0.00000   0.01464   0.01464   2.11679
    A6        2.07890  -0.00472   0.00000  -0.02929  -0.02929   2.04961
    D1       -0.00000   0.00000   0.00000   0.00000   0.00000   0.00000
    D2        3.14159   0.00000   0.00000   0.00000   0.00000   3.14159
    D3        3.14159   0.00000   0.00000   0.00000   0.00000   3.14159
    D4       -0.00000   0.00000   0.00000   0.00000   0.00000   0.00000
         Item               Value     Threshold  Converged?
 Maximum Force            0.008124     0.000450     NO 
 RMS     Force            0.004978     0.000300     NO 
 Maximum Displacement     0.043075     0.001800     NO 
 RMS     Displacement     0.022435     0.001200     NO 
 Predicted change in Energy=-6.169253D-04
 GradGradGradGradGradGradGradGradGradGradGradGradGradGradGradGradGradGrad

                          Input orientation:                          
 ---------------------------------------------------------------------
 Center     Atomic      Atomic             Coordinates (Angstroms)
 Number     Number       Type             X           Y           Z
 ---------------------------------------------------------------------
      1          6           0        0.999819   -0.051651    0.084861
      2          6           0        2.337741   -0.051651    0.084861
      3          1           0        0.429956   -0.743230   -0.548661
      4          1           0        0.429956    0.639928    0.718384
      5          1           0        2.907604   -0.743230   -0.548661
      6          1           0        2.907604    0.639928    0.718384
 ---------------------------------------------------------------------
                    Distance matrix (angstroms):
                    1          2          3          4          5
     1  C    0.000000
     2  C    1.337923   0.000000
     3  H    1.097441   2.125860   0.000000
     4  H    1.097441   2.125860   1.875774   0.000000
     5  H    2.125860   1.097441   2.477649   3.107615   0.000000
     6  H    2.125860   1.097441   3.107615   2.477649   1.875774
                    6
     6  H    0.000000
 Stoichiometry    C2H4
 Framework group  D2H[C2"(C.C),SG(H4)]
 Deg. of freedom     3
 Full point group                 D2H     NOp   8
 Omega: Change in point group or standard orientation.

 Old FWG=D02H [C2(C1.C1),SG"(H4)]
 New FWG=D02H [C2"(C1.C1),SG(H4)]
 Largest Abelian subgroup         D2H     NOp   8
 Largest concise Abelian subgroup D2      NOp   4
                         Standard orientation:                         
 ---------------------------------------------------------------------
 Center     Atomic      Atomic             Coordinates (Angstroms)
 Number     Number       Type             X           Y           Z
 ---------------------------------------------------------------------
      1          6           0        0.000000    0.000000   -0.668961
      2          6           0        0.000000    0.000000    0.668961
      3          1           0       -0.000000   -0.937887   -1.238824
      4          1           0        0.000000    0.937887   -1.238824
      5          1           0        0.000000   -0.937887    1.238824
      6          1           0       -0.000000    0.937887    1.238824
 ---------------------------------------------------------------------
 Rotational constants (GHZ):         142.5184154          29.8563790          24.6850698
 Standard basis: def2SVPP (5D, 7F)
 There are    10 symmetry adapted cartesian basis functions of AG  symmetry.
 There are     1 symmetry adapted cartesian basis functions of B1G symmetry.
 There are     3 symmetry adapted cartesian basis functions of B2G symmetry.
 There are     5 symmetry adapted cartesian basis functions of B3G symmetry.
 There are     1 symmetry adapted cartesian basis functions of AU  symmetry.
 There are    10 symmetry adapted cartesian basis functions of B1U symmetry.
 There are     5 symmetry adapted cartesian basis functions of B2U symmetry.
 There are     3 symmetry adapted cartesian basis functions of B3U symmetry.
 There are     9 symmetry adapted basis functions of AG  symmetry.
 There are     1 symmetry adapted basis functions of B1G symmetry.
 There are     3 symmetry adapted basis functions of B2G symmetry.
 There are     5 symmetry adapted basis functions of B3G symmetry.
 There are     1 symmetry adapted basis functions of AU  symmetry.
 There are     9 symmetry adapted basis functions of B1U symmetry.
 There are     5 symmetry adapted basis functions of B2U symmetry.
 There are     3 symmetry adapted basis functions of B3U symmetry.
    36 basis functions,    66 primitive gaussians,    38 cartesian basis functions
     8 alpha electrons        8 beta electrons
       nuclear repulsion energy        33.1175093378 Hartrees.
 NAtoms=    6 NActive=    6 NUniq=    2 SFac= 4.00D+00 NAtFMM=   60 NAOKFM=F Big=F
 Integral buffers will be    131072 words long.
 Raffenetti 2 integral format.
 Two-electron integral symmetry is turned on.
 Nuclear repulsion after empirical dispersion term =       33.1135739106 Hartrees.
 One-electron integrals computed using PRISM.
   8 Symmetry operations used in ECPInt.
 ECPInt:  NShTT=     210 NPrTT=     858 LenC2=     211 LenP2D=     801.
 LDataN:  DoStor=T MaxTD1= 4 Len=   56
 NBasis=    36 RedAO= T EigKep=  4.76D-03  NBF=     9     1     3     5     1     9     5     3
 NBsUse=    36 1.00D-06 EigRej= -1.00D+00 NBFU=     9     1     3     5     1     9     5     3
 Initial guess from the checkpoint file:  "/home/software/g16tmp/Gau-66663.chk"
 B after Tr=     0.000000    0.000000    0.000000
         Rot=    0.707107   -0.000000   -0.707107    0.000000 Ang= -90.00 deg.
 Initial guess orbital symmetries:
       Occupied  (AG) (B1U) (AG) (B1U) (B2U) (AG) (B3G) (B3U)
       Virtual   (B2G) (AG) (B2U) (B1U) (B3G) (B1U) (AG) (AG) (B2U)
                 (B3U) (B1U) (B2G) (AG) (B1U) (B2U) (B3G) (B1U)
                 (B3G) (B3U) (B1G) (AU) (AG) (B2U) (AG) (B1U) (B2G)
                 (B3G) (B1U)
 ExpMin= 1.22D-01 ExpMax= 1.24D+03 ExpMxC= 1.86D+02 IAcc=3 IRadAn=         5 AccDes= 0.00D+00
 Harris functional with IExCor=  402 and IRadAn=       5 diagonalized for initial guess.
 HarFok:  IExCor=  402 AccDes= 0.00D+00 IRadAn=         5 IDoV= 1 UseB2=F ITyADJ=14
 ICtDFT=  3500011 ScaDFX=  1.000000  1.000000  1.000000  1.000000
 FoFCou: FMM=F IPFlag=           0 FMFlag=      100000 FMFlg1=           0
         NFxFlg=           0 DoJE=T BraDBF=F KetDBF=T FulRan=T
         wScrn=  0.000000 ICntrl=       500 IOpCl=  0 I1Cent=   200000004 NGrid=           0
         NMat0=    1 NMatS0=      1 NMatT0=    0 NMatD0=    1 NMtDS0=    0 NMtDT0=    0
 Petite list used in FoFCou.
 Keep R1 ints in memory in symmetry-blocked form, NReq=14053953.
 Requested convergence on RMS density matrix=1.00D-08 within 128 cycles.
 Requested convergence on MAX density matrix=1.00D-06.
 Requested convergence on             energy=1.00D-06.
 No special actions if energy rises.
 Integral accuracy reduced to 1.0D-05 until final iterations.
 Initial convergence to 1.0D-05 achieved.  Increase integral accuracy.
 SCF Done:  E(RB3LYP) =  -78.5256976474     A.U. after    8 cycles
            NFock=  8  Conv=0.57D-08     -V/T= 2.0121
   8 Symmetry operations used in ECPInt.
 ECPInt:  NShTT=     210 NPrTT=     858 LenC2=     211 LenP2D=     801.
 LDataN:  DoStor=T MaxTD1= 5 Len=  102
 Calling FoFJK, ICntrl=      2127 FMM=F ISym2X=1 I1Cent= 0 IOpClX= 0 NMat=1 NMatS=1 NMatT=0.
 ***** Axes restored to original set *****
 -------------------------------------------------------------------
 Center     Atomic                   Forces (Hartrees/Bohr)
 Number     Number              X              Y              Z
 -------------------------------------------------------------------
      1        6           0.004703376    0.000000000    0.000000000
      2        6          -0.004703376   -0.000000000    0.000000000
      3        1          -0.000824864    0.000501968    0.000459829
      4        1          -0.000824864   -0.000501968   -0.000459829
      5        1           0.000824864    0.000501968    0.000459829
      6        1           0.000824864   -0.000501968   -0.000459829
 -------------------------------------------------------------------
 Cartesian Forces:  Max     0.004703376 RMS     0.001646862

 GradGradGradGradGradGradGradGradGradGradGradGradGradGradGradGradGradGrad
 Berny optimization.
 Using GEDIIS/GDIIS optimizer.
 FormGI is forming the generalized inverse of G from B-inverse, IUseBI=4.
 Internal  Forces:  Max     0.003053648 RMS     0.001027722
 Search for a local minimum.
 Step number   2 out of a maximum of   25
 All quantities printed in internal units (Hartrees-Bohrs-Radians)
 Mixed Optimization -- RFO/linear search
 Update second derivatives using D2CorX and points    1    2
 DE= -6.50D-04 DEPred=-6.17D-04 R= 1.05D+00
 TightC=F SS=  1.41D+00  RLast= 6.92D-02 DXNew= 5.0454D-01 2.0756D-01
 Trust test= 1.05D+00 RLast= 6.92D-02 DXMaxT set to 3.00D-01
 The second derivative matrix:
                          R1        R2        R3        R4        R5
           R1           0.63442
           R2           0.02594   0.35972
           R3           0.02594   0.00613   0.35972
           R4           0.02594   0.00613   0.00613   0.35972
           R5           0.02594   0.00613   0.00613   0.00613   0.35972
           A1           0.00119  -0.00376  -0.00376  -0.00376  -0.00376
           A2           0.00119  -0.00376  -0.00376  -0.00376  -0.00376
           A3          -0.00239   0.00752   0.00752   0.00752   0.00752
           A4           0.00119  -0.00376  -0.00376  -0.00376  -0.00376
           A5           0.00119  -0.00376  -0.00376  -0.00376  -0.00376
           A6          -0.00239   0.00752   0.00752   0.00752   0.00752
           D1           0.00000   0.00000   0.00000   0.00000   0.00000
           D2          -0.00000  -0.00000  -0.00000  -0.00000  -0.00000
           D3           0.00000   0.00000   0.00000   0.00000   0.00000
           D4           0.00000   0.00000   0.00000   0.00000   0.00000
                          A1        A2        A3        A4        A5
           A1           0.15782
           A2          -0.00218   0.15782
           A3           0.00435   0.00435   0.15129
           A4          -0.00218  -0.00218   0.00435   0.15782
           A5          -0.00218  -0.00218   0.00435  -0.00218   0.15782
           A6           0.00435   0.00435  -0.00871   0.00435   0.00435
           D1           0.00000   0.00000  -0.00000   0.00000   0.00000
           D2          -0.00000  -0.00000   0.00000  -0.00000  -0.00000
           D3           0.00000   0.00000  -0.00000   0.00000   0.00000
           D4           0.00000   0.00000  -0.00000   0.00000   0.00000
                          A6        D1        D2        D3        D4
           A6           0.15129
           D1          -0.00000   0.02986
           D2           0.00000   0.00000   0.02986
           D3          -0.00000   0.00000   0.00000   0.02986
           D4          -0.00000   0.00000   0.00000   0.00000   0.02986
 ITU=  1  0
 Use linear search instead of GDIIS.
     Eigenvalues ---    0.02986   0.02986   0.02986   0.13095   0.16000
     Eigenvalues ---    0.16000   0.16000   0.35359   0.35359   0.35359
     Eigenvalues ---    0.37093   0.64453
 RFO step:  Lambda=-5.88025825D-05 EMin= 2.98561983D-02
 Quartic linear search produced a step of  0.07310.
 Iteration  1 RMS(Cart)=  0.00501821 RMS(Int)=  0.00001706
 Iteration  2 RMS(Cart)=  0.00001709 RMS(Int)=  0.00000000
 Iteration  3 RMS(Cart)=  0.00000000 RMS(Int)=  0.00000000
 ClnCor:  largest displacement from symmetrization is 8.81D-09 for atom     3.
 Variable       Old X    -DE/DX   Delta X   Delta X   Delta X     New X
                                 (Linear)    (Quad)   (Total)
    R1        2.52831  -0.00305   0.00079  -0.00583  -0.00504   2.52327
    R2        2.07386  -0.00015   0.00167  -0.00103   0.00064   2.07450
    R3        2.07386  -0.00015   0.00167  -0.00103   0.00064   2.07450
    R4        2.07386  -0.00015   0.00167  -0.00103   0.00064   2.07450
    R5        2.07386  -0.00015   0.00167  -0.00103   0.00064   2.07450
    A1        2.11679   0.00073   0.00107   0.00456   0.00563   2.12242
    A2        2.11679   0.00073   0.00107   0.00456   0.00563   2.12242
    A3        2.04961  -0.00146  -0.00214  -0.00913  -0.01127   2.03834
    A4        2.11679   0.00073   0.00107   0.00456   0.00563   2.12242
    A5        2.11679   0.00073   0.00107   0.00456   0.00563   2.12242
    A6        2.04961  -0.00146  -0.00214  -0.00913  -0.01127   2.03834
    D1        0.00000  -0.00000   0.00000   0.00000   0.00000   0.00000
    D2       -3.14159  -0.00000   0.00000   0.00000  -0.00000   3.14159
    D3        3.14159  -0.00000   0.00000  -0.00000   0.00000  -3.14159
    D4        0.00000  -0.00000   0.00000   0.00000   0.00000   0.00000
         Item               Value     Threshold  Converged?
 Maximum Force            0.003054     0.000450     NO 
 RMS     Force            0.001028     0.000300     NO 
 Maximum Displacement     0.007784     0.001800     NO 
 RMS     Displacement     0.005021     0.001200     NO 
 Predicted change in Energy=-3.199094D-05
 GradGradGradGradGradGradGradGradGradGradGradGradGradGradGradGradGradGrad

                          Input orientation:                          
 ---------------------------------------------------------------------
 Center     Atomic      Atomic             Coordinates (Angstroms)
 Number     Number       Type             X           Y           Z
 ---------------------------------------------------------------------
      1          6           0        1.001151   -0.051651    0.084861
      2          6           0        2.336409   -0.051651    0.084861
      3          1           0        0.425836   -0.741065   -0.546678
      4          1           0        0.425836    0.637763    0.716401
      5          1           0        2.911724   -0.741065   -0.546678
      6          1           0        2.911724    0.637763    0.716401
 ---------------------------------------------------------------------
                    Distance matrix (angstroms):
                    1          2          3          4          5
     1  C    0.000000
     2  C    1.335258   0.000000
     3  H    1.097780   2.127068   0.000000
     4  H    1.097780   2.127068   1.869902   0.000000
     5  H    2.127068   1.097780   2.485887   3.110654   0.000000
     6  H    2.127068   1.097780   3.110654   2.485887   1.869902
                    6
     6  H    0.000000
 Stoichiometry    C2H4
 Framework group  D2H[C2"(C.C),SG(H4)]
 Deg. of freedom     3
 Full point group                 D2H     NOp   8
 Largest Abelian subgroup         D2H     NOp   8
 Largest concise Abelian subgroup D2      NOp   4
                         Standard orientation:                         
 ---------------------------------------------------------------------
 Center     Atomic      Atomic             Coordinates (Angstroms)
 Number     Number       Type             X           Y           Z
 ---------------------------------------------------------------------
      1          6           0        0.000000    0.000000   -0.667629
      2          6           0        0.000000    0.000000    0.667629
      3          1           0       -0.000000   -0.934951   -1.242944
      4          1           0       -0.000000    0.934951   -1.242944
      5          1           0        0.000000   -0.934951    1.242944
      6          1           0       -0.000000    0.934951    1.242944
 ---------------------------------------------------------------------
 Rotational constants (GHZ):         143.4149035          29.8590876          24.7136812
 Standard basis: def2SVPP (5D, 7F)
 There are    10 symmetry adapted cartesian basis functions of AG  symmetry.
 There are     1 symmetry adapted cartesian basis functions of B1G symmetry.
 There are     3 symmetry adapted cartesian basis functions of B2G symmetry.
 There are     5 symmetry adapted cartesian basis functions of B3G symmetry.
 There are     1 symmetry adapted cartesian basis functions of AU  symmetry.
 There are    10 symmetry adapted cartesian basis functions of B1U symmetry.
 There are     5 symmetry adapted cartesian basis functions of B2U symmetry.
 There are     3 symmetry adapted cartesian basis functions of B3U symmetry.
 There are     9 symmetry adapted basis functions of AG  symmetry.
 There are     1 symmetry adapted basis functions of B1G symmetry.
 There are     3 symmetry adapted basis functions of B2G symmetry.
 There are     5 symmetry adapted basis functions of B3G symmetry.
 There are     1 symmetry adapted basis functions of AU  symmetry.
 There are     9 symmetry adapted basis functions of B1U symmetry.
 There are     5 symmetry adapted basis functions of B2U symmetry.
 There are     3 symmetry adapted basis functions of B3U symmetry.
    36 basis functions,    66 primitive gaussians,    38 cartesian basis functions
     8 alpha electrons        8 beta electrons
       nuclear repulsion energy        33.1389817314 Hartrees.
 NAtoms=    6 NActive=    6 NUniq=    2 SFac= 4.00D+00 NAtFMM=   60 NAOKFM=F Big=F
 Integral buffers will be    131072 words long.
 Raffenetti 2 integral format.
 Two-electron integral symmetry is turned on.
 Nuclear repulsion after empirical dispersion term =       33.1350477047 Hartrees.
 One-electron integrals computed using PRISM.
   8 Symmetry operations used in ECPInt.
 ECPInt:  NShTT=     210 NPrTT=     858 LenC2=     211 LenP2D=     801.
 LDataN:  DoStor=T MaxTD1= 4 Len=   56
 NBasis=    36 RedAO= T EigKep=  4.74D-03  NBF=     9     1     3     5     1     9     5     3
 NBsUse=    36 1.00D-06 EigRej= -1.00D+00 NBFU=     9     1     3     5     1     9     5     3
 Initial guess from the checkpoint file:  "/home/software/g16tmp/Gau-66663.chk"
 B after Tr=    -0.000000   -0.000000   -0.000000
         Rot=    1.000000   -0.000000    0.000000   -0.000000 Ang=   0.00 deg.
 Initial guess orbital symmetries:
       Occupied  (AG) (B1U) (AG) (B1U) (B2U) (AG) (B3G) (B3U)
       Virtual   (B2G) (AG) (B2U) (B1U) (B3G) (B1U) (AG) (AG) (B2U)
                 (B3U) (B1U) (B2G) (AG) (B1U) (B2U) (B3G) (B1U)
                 (B3G) (B3U) (B1G) (AU) (AG) (B2U) (AG) (B1U) (B2G)
                 (B3G) (B1U)
 Keep R1 ints in memory in symmetry-blocked form, NReq=14053953.
 Requested convergence on RMS density matrix=1.00D-08 within 128 cycles.
 Requested convergence on MAX density matrix=1.00D-06.
 Requested convergence on             energy=1.00D-06.
 No special actions if energy rises.
 SCF Done:  E(RB3LYP) =  -78.5257362138     A.U. after    6 cycles
            NFock=  6  Conv=0.37D-08     -V/T= 2.0121
   8 Symmetry operations used in ECPInt.
 ECPInt:  NShTT=     210 NPrTT=     858 LenC2=     211 LenP2D=     801.
 LDataN:  DoStor=T MaxTD1= 5 Len=  102
 Calling FoFJK, ICntrl=      2127 FMM=F ISym2X=1 I1Cent= 0 IOpClX= 0 NMat=1 NMatS=1 NMatT=0.
 ***** Axes restored to original set *****
 -------------------------------------------------------------------
 Center     Atomic                   Forces (Hartrees/Bohr)
 Number     Number              X              Y              Z
 -------------------------------------------------------------------
      1        6           0.000657677   -0.000000000   -0.000000000
      2        6          -0.000657677    0.000000000    0.000000000
      3        1          -0.000059026    0.000247070    0.000226329
      4        1          -0.000059026   -0.000247070   -0.000226329
      5        1           0.000059026    0.000247070    0.000226329
      6        1           0.000059026   -0.000247070   -0.000226329
 -------------------------------------------------------------------
 Cartesian Forces:  Max     0.000657677 RMS     0.000271630

 GradGradGradGradGradGradGradGradGradGradGradGradGradGradGradGradGradGrad
 Berny optimization.
 Using GEDIIS/GDIIS optimizer.
 FormGI is forming the generalized inverse of G from B-inverse, IUseBI=4.
 Internal  Forces:  Max     0.000539625 RMS     0.000237048
 Search for a local minimum.
 Step number   3 out of a maximum of   25
 All quantities printed in internal units (Hartrees-Bohrs-Radians)
 Mixed Optimization -- En-DIIS/RFO-DIIS
 Update second derivatives using D2CorX and points    1    2    3
 DE= -3.86D-05 DEPred=-3.20D-05 R= 1.21D+00
 TightC=F SS=  1.41D+00  RLast= 2.02D-02 DXNew= 5.0454D-01 6.0580D-02
 Trust test= 1.21D+00 RLast= 2.02D-02 DXMaxT set to 3.00D-01
 The second derivative matrix:
                          R1        R2        R3        R4        R5
           R1           0.61274
           R2           0.01667   0.36277
           R3           0.01667   0.00919   0.36277
           R4           0.01667   0.00919   0.00919   0.36277
           R5           0.01667   0.00919   0.00919   0.00919   0.36277
           A1           0.00783  -0.00097  -0.00097  -0.00097  -0.00097
           A2           0.00783  -0.00097  -0.00097  -0.00097  -0.00097
           A3          -0.01566   0.00193   0.00193   0.00193   0.00193
           A4           0.00783  -0.00097  -0.00097  -0.00097  -0.00097
           A5           0.00783  -0.00097  -0.00097  -0.00097  -0.00097
           A6          -0.01566   0.00193   0.00193   0.00193   0.00193
           D1           0.00000  -0.00000  -0.00000  -0.00000  -0.00000
           D2          -0.00000  -0.00000  -0.00000  -0.00000  -0.00000
           D3           0.00000  -0.00000  -0.00000  -0.00000  -0.00000
           D4           0.00000   0.00000   0.00000   0.00000   0.00000
                          A1        A2        A3        A4        A5
           A1           0.15580
           A2          -0.00420   0.15580
           A3           0.00840   0.00840   0.14320
           A4          -0.00420  -0.00420   0.00840   0.15580
           A5          -0.00420  -0.00420   0.00840  -0.00420   0.15580
           A6           0.00840   0.00840  -0.01680   0.00840   0.00840
           D1          -0.00000  -0.00000   0.00000  -0.00000  -0.00000
           D2           0.00000   0.00000  -0.00000   0.00000   0.00000
           D3          -0.00000  -0.00000   0.00000  -0.00000  -0.00000
           D4          -0.00000  -0.00000   0.00000  -0.00000  -0.00000
                          A6        D1        D2        D3        D4
           A6           0.14320
           D1           0.00000   0.02986
           D2          -0.00000   0.00000   0.02986
           D3           0.00000   0.00000  -0.00000   0.02986
           D4           0.00000   0.00000   0.00000   0.00000   0.02986
 ITU=  1  1  0
 Use linear search instead of GDIIS.
     Eigenvalues ---    0.02986   0.02986   0.02986   0.10789   0.16000
     Eigenvalues ---    0.16000   0.16000   0.35359   0.35359   0.35359
     Eigenvalues ---    0.38584   0.61894
 RFO step:  Lambda=-8.35427643D-07 EMin= 2.98561983D-02
 Quartic linear search produced a step of  0.24245.
 Iteration  1 RMS(Cart)=  0.00142798 RMS(Int)=  0.00000121
 Iteration  2 RMS(Cart)=  0.00000124 RMS(Int)=  0.00000000
 Iteration  3 RMS(Cart)=  0.00000000 RMS(Int)=  0.00000000
 ClnCor:  largest displacement from symmetrization is 9.77D-09 for atom     1.
 Variable       Old X    -DE/DX   Delta X   Delta X   Delta X     New X
                                 (Linear)    (Quad)   (Total)
    R1        2.52327  -0.00054  -0.00122   0.00018  -0.00104   2.52223
    R2        2.07450  -0.00025   0.00016  -0.00072  -0.00056   2.07394
    R3        2.07450  -0.00025   0.00016  -0.00072  -0.00056   2.07394
    R4        2.07450  -0.00025   0.00016  -0.00072  -0.00056   2.07394
    R5        2.07450  -0.00025   0.00016  -0.00072  -0.00056   2.07394
    A1        2.12242   0.00016   0.00137   0.00011   0.00147   2.12389
    A2        2.12242   0.00016   0.00137   0.00011   0.00147   2.12389
    A3        2.03834  -0.00031  -0.00273  -0.00021  -0.00294   2.03540
    A4        2.12242   0.00016   0.00137   0.00011   0.00147   2.12389
    A5        2.12242   0.00016   0.00137   0.00011   0.00147   2.12389
    A6        2.03834  -0.00031  -0.00273  -0.00021  -0.00294   2.03540
    D1       -0.00000   0.00000   0.00000  -0.00000   0.00000   0.00000
    D2        3.14159  -0.00000  -0.00000  -0.00000   0.00000   3.14159
    D3        3.14159   0.00000   0.00000   0.00000   0.00000   3.14159
    D4       -0.00000  -0.00000   0.00000  -0.00000   0.00000   0.00000
         Item               Value     Threshold  Converged?
 Maximum Force            0.000540     0.000450     NO 
 RMS     Force            0.000237     0.000300     YES
 Maximum Displacement     0.001782     0.001800     YES
 RMS     Displacement     0.001428     0.001200     NO 
 Predicted change in Energy=-1.955742D-06
 GradGradGradGradGradGradGradGradGradGradGradGradGradGradGradGradGradGrad

                          Input orientation:                          
 ---------------------------------------------------------------------
 Center     Atomic      Atomic             Coordinates (Angstroms)
 Number     Number       Type             X           Y           Z
 ---------------------------------------------------------------------
      1          6           0        1.001427   -0.051651    0.084861
      2          6           0        2.336133   -0.051651    0.084861
      3          1           0        0.424893   -0.740253   -0.545934
      4          1           0        0.424893    0.636950    0.715656
      5          1           0        2.912667   -0.740253   -0.545934
      6          1           0        2.912667    0.636950    0.715656
 ---------------------------------------------------------------------
                    Distance matrix (angstroms):
                    1          2          3          4          5
     1  C    0.000000
     2  C    1.334705   0.000000
     3  H    1.097482   2.127183   0.000000
     4  H    1.097482   2.127183   1.867698   0.000000
     5  H    2.127183   1.097482   2.487773   3.110838   0.000000
     6  H    2.127183   1.097482   3.110838   2.487773   1.867698
                    6
     6  H    0.000000
 Stoichiometry    C2H4
 Framework group  D2H[C2"(C.C),SG(H4)]
 Deg. of freedom     3
 Full point group                 D2H     NOp   8
 Largest Abelian subgroup         D2H     NOp   8
 Largest concise Abelian subgroup D2      NOp   4
                         Standard orientation:                         
 ---------------------------------------------------------------------
 Center     Atomic      Atomic             Coordinates (Angstroms)
 Number     Number       Type             X           Y           Z
 ---------------------------------------------------------------------
      1          6           0        0.000000   -0.000000   -0.667353
      2          6           0        0.000000   -0.000000    0.667353
      3          1           0       -0.000000   -0.933849   -1.243887
      4          1           0        0.000000    0.933849   -1.243887
      5          1           0        0.000000   -0.933849    1.243887
      6          1           0       -0.000000    0.933849    1.243887
 ---------------------------------------------------------------------
 Rotational constants (GHZ):         143.7535446          29.8580221          24.7229870
 Standard basis: def2SVPP (5D, 7F)
 There are    10 symmetry adapted cartesian basis functions of AG  symmetry.
 There are     1 symmetry adapted cartesian basis functions of B1G symmetry.
 There are     3 symmetry adapted cartesian basis functions of B2G symmetry.
 There are     5 symmetry adapted cartesian basis functions of B3G symmetry.
 There are     1 symmetry adapted cartesian basis functions of AU  symmetry.
 There are    10 symmetry adapted cartesian basis functions of B1U symmetry.
 There are     5 symmetry adapted cartesian basis functions of B2U symmetry.
 There are     3 symmetry adapted cartesian basis functions of B3U symmetry.
 There are     9 symmetry adapted basis functions of AG  symmetry.
 There are     1 symmetry adapted basis functions of B1G symmetry.
 There are     3 symmetry adapted basis functions of B2G symmetry.
 There are     5 symmetry adapted basis functions of B3G symmetry.
 There are     1 symmetry adapted basis functions of AU  symmetry.
 There are     9 symmetry adapted basis functions of B1U symmetry.
 There are     5 symmetry adapted basis functions of B2U symmetry.
 There are     3 symmetry adapted basis functions of B3U symmetry.
    36 basis functions,    66 primitive gaussians,    38 cartesian basis functions
     8 alpha electrons        8 beta electrons
       nuclear repulsion energy        33.1480337557 Hartrees.
 NAtoms=    6 NActive=    6 NUniq=    2 SFac= 4.00D+00 NAtFMM=   60 NAOKFM=F Big=F
 Integral buffers will be    131072 words long.
 Raffenetti 2 integral format.
 Two-electron integral symmetry is turned on.
 Nuclear repulsion after empirical dispersion term =       33.1440999462 Hartrees.
 One-electron integrals computed using PRISM.
   8 Symmetry operations used in ECPInt.
 ECPInt:  NShTT=     210 NPrTT=     858 LenC2=     211 LenP2D=     801.
 LDataN:  DoStor=T MaxTD1= 4 Len=   56
 NBasis=    36 RedAO= T EigKep=  4.74D-03  NBF=     9     1     3     5     1     9     5     3
 NBsUse=    36 1.00D-06 EigRej= -1.00D+00 NBFU=     9     1     3     5     1     9     5     3
 Initial guess from the checkpoint file:  "/home/software/g16tmp/Gau-66663.chk"
 B after Tr=     0.000000   -0.000000    0.000000
         Rot=    1.000000   -0.000000    0.000000    0.000000 Ang=   0.00 deg.
 Initial guess orbital symmetries:
       Occupied  (AG) (B1U) (AG) (B1U) (B2U) (AG) (B3G) (B3U)
       Virtual   (B2G) (AG) (B2U) (B1U) (B3G) (B1U) (AG) (B2U)
                 (AG) (B3U) (B1U) (B2G) (AG) (B1U) (B2U) (B3G)
                 (B1U) (B3G) (B3U) (B1G) (AU) (AG) (B2U) (AG) (B1U)
                 (B2G) (B3G) (B1U)
 Keep R1 ints in memory in symmetry-blocked form, NReq=14053953.
 Requested convergence on RMS density matrix=1.00D-08 within 128 cycles.
 Requested convergence on MAX density matrix=1.00D-06.
 Requested convergence on             energy=1.00D-06.
 No special actions if energy rises.
 SCF Done:  E(RB3LYP) =  -78.5257381898     A.U. after    6 cycles
            NFock=  6  Conv=0.12D-08     -V/T= 2.0120
   8 Symmetry operations used in ECPInt.
 ECPInt:  NShTT=     210 NPrTT=     858 LenC2=     211 LenP2D=     801.
 LDataN:  DoStor=T MaxTD1= 5 Len=  102
 Calling FoFJK, ICntrl=      2127 FMM=F ISym2X=1 I1Cent= 0 IOpClX= 0 NMat=1 NMatS=1 NMatT=0.
 ***** Axes restored to original set *****
 -------------------------------------------------------------------
 Center     Atomic                   Forces (Hartrees/Bohr)
 Number     Number              X              Y              Z
 -------------------------------------------------------------------
      1        6           0.000005311    0.000000000   -0.000000000
      2        6          -0.000005311    0.000000000    0.000000000
      3        1           0.000013302    0.000012691    0.000011625
      4        1           0.000013302   -0.000012691   -0.000011625
      5        1          -0.000013302    0.000012691    0.000011625
      6        1          -0.000013302   -0.000012691   -0.000011625
 -------------------------------------------------------------------
 Cartesian Forces:  Max     0.000013302 RMS     0.000010406

 GradGradGradGradGradGradGradGradGradGradGradGradGradGradGradGradGradGrad
 Berny optimization.
 Using GEDIIS/GDIIS optimizer.
 FormGI is forming the generalized inverse of G from B-inverse, IUseBI=4.
 Internal  Forces:  Max     0.000031916 RMS     0.000013953
 Search for a local minimum.
 Step number   4 out of a maximum of   25
 All quantities printed in internal units (Hartrees-Bohrs-Radians)
 Mixed Optimization -- En-DIIS/RFO-DIIS
 Swapping is turned off.
 Update second derivatives using D2CorX and points    1    2    3    4
 DE= -1.98D-06 DEPred=-1.96D-06 R= 1.01D+00
 TightC=F SS=  1.41D+00  RLast= 5.33D-03 DXNew= 5.0454D-01 1.5980D-02
 Trust test= 1.01D+00 RLast= 5.33D-03 DXMaxT set to 3.00D-01
 The second derivative matrix:
                          R1        R2        R3        R4        R5
           R1           0.61078
           R2           0.01169   0.35622
           R3           0.01169   0.00263   0.35622
           R4           0.01169   0.00263   0.00263   0.35622
           R5           0.01169   0.00263   0.00263   0.00263   0.35622
           A1           0.00884  -0.00087  -0.00087  -0.00087  -0.00087
           A2           0.00884  -0.00087  -0.00087  -0.00087  -0.00087
           A3          -0.01768   0.00174   0.00174   0.00174   0.00174
           A4           0.00884  -0.00087  -0.00087  -0.00087  -0.00087
           A5           0.00884  -0.00087  -0.00087  -0.00087  -0.00087
           A6          -0.01768   0.00174   0.00174   0.00174   0.00174
           D1           0.00000  -0.00000  -0.00000  -0.00000  -0.00000
           D2          -0.00000  -0.00000  -0.00000  -0.00000  -0.00000
           D3          -0.00000  -0.00000  -0.00000  -0.00000  -0.00000
           D4          -0.00000  -0.00000  -0.00000  -0.00000  -0.00000
                          A1        A2        A3        A4        A5
           A1           0.15601
           A2          -0.00399   0.15601
           A3           0.00798   0.00798   0.14403
           A4          -0.00399  -0.00399   0.00798   0.15601
           A5          -0.00399  -0.00399   0.00798  -0.00399   0.15601
           A6           0.00798   0.00798  -0.01597   0.00798   0.00798
           D1           0.00000   0.00000  -0.00000   0.00000   0.00000
           D2          -0.00000  -0.00000   0.00000  -0.00000  -0.00000
           D3           0.00000   0.00000  -0.00000   0.00000   0.00000
           D4           0.00000   0.00000  -0.00000   0.00000   0.00000
                          A6        D1        D2        D3        D4
           A6           0.14403
           D1          -0.00000   0.02986
           D2           0.00000   0.00000   0.02986
           D3          -0.00000   0.00000   0.00000   0.02986
           D4          -0.00000   0.00000   0.00000   0.00000   0.02986
 ITU=  1  1  1  0
     Eigenvalues ---    0.02986   0.02986   0.02986   0.11000   0.16000
     Eigenvalues ---    0.16000   0.16000   0.35359   0.35359   0.35359
     Eigenvalues ---    0.36222   0.61476
 En-DIIS/RFO-DIIS/Sim-DIIS IScMMF=       -3 using points:     4    3
 RFO step:  Lambda=-6.40212382D-09.
 DidBck=F Rises=F RFO-DIIS coefs:    0.99868    0.00132
 Iteration  1 RMS(Cart)=  0.00004385 RMS(Int)=  0.00000001
 Iteration  2 RMS(Cart)=  0.00000001 RMS(Int)=  0.00000001
 ClnCor:  largest displacement from symmetrization is 1.20D-08 for atom     6.
 Variable       Old X    -DE/DX   Delta X   Delta X   Delta X     New X
                                 (Linear)    (Quad)   (Total)
    R1        2.52223  -0.00003   0.00000  -0.00005  -0.00005   2.52218
    R2        2.07394  -0.00002   0.00000  -0.00006  -0.00006   2.07388
    R3        2.07394  -0.00002   0.00000  -0.00006  -0.00006   2.07388
    R4        2.07394  -0.00002   0.00000  -0.00006  -0.00006   2.07388
    R5        2.07394  -0.00002   0.00000  -0.00006  -0.00006   2.07388
    A1        2.12389  -0.00000  -0.00000  -0.00001  -0.00001   2.12388
    A2        2.12389  -0.00000  -0.00000  -0.00001  -0.00001   2.12388
    A3        2.03540   0.00000   0.00000   0.00002   0.00002   2.03542
    A4        2.12389  -0.00000  -0.00000  -0.00001  -0.00001   2.12388
    A5        2.12389  -0.00000  -0.00000  -0.00001  -0.00001   2.12388
    A6        2.03540   0.00000   0.00000   0.00002   0.00002   2.03542
    D1        0.00000   0.00000   0.00000  -0.00000   0.00000   0.00000
    D2        3.14159  -0.00000   0.00000  -0.00000   0.00000  -3.14159
    D3        3.14159  -0.00000   0.00000   0.00000   0.00000   3.14159
    D4        0.00000  -0.00000   0.00000  -0.00000   0.00000   0.00000
         Item               Value     Threshold  Converged?
 Maximum Force            0.000032     0.000450     YES
 RMS     Force            0.000014     0.000300     YES
 Maximum Displacement     0.000075     0.001800     YES
 RMS     Displacement     0.000044     0.001200     YES
 Predicted change in Energy=-3.366681D-09
 Optimization completed.
    -- Stationary point found.
                           ----------------------------
                           !   Optimized Parameters   !
                           ! (Angstroms and Degrees)  !
 --------------------------                            --------------------------
 ! Name  Definition              Value          Derivative Info.                !
 --------------------------------------------------------------------------------
 ! R1    R(1,2)                  1.3347         -DE/DX =    0.0                 !
 ! R2    R(1,3)                  1.0975         -DE/DX =    0.0                 !
 ! R3    R(1,4)                  1.0975         -DE/DX =    0.0                 !
 ! R4    R(2,5)                  1.0975         -DE/DX =    0.0                 !
 ! R5    R(2,6)                  1.0975         -DE/DX =    0.0                 !
 ! A1    A(2,1,3)              121.6901         -DE/DX =    0.0                 !
 ! A2    A(2,1,4)              121.6901         -DE/DX =    0.0                 !
 ! A3    A(3,1,4)              116.6198         -DE/DX =    0.0                 !
 ! A4    A(1,2,5)              121.6901         -DE/DX =    0.0                 !
 ! A5    A(1,2,6)              121.6901         -DE/DX =    0.0                 !
 ! A6    A(5,2,6)              116.6198         -DE/DX =    0.0                 !
 ! D1    D(3,1,2,5)              0.0            -DE/DX =    0.0                 !
 ! D2    D(3,1,2,6)           -180.0            -DE/DX =    0.0                 !
 ! D3    D(4,1,2,5)            180.0            -DE/DX =    0.0                 !
 ! D4    D(4,1,2,6)              0.0            -DE/DX =    0.0                 !
 --------------------------------------------------------------------------------
 GradGradGradGradGradGradGradGradGradGradGradGradGradGradGradGradGradGrad

                          Input orientation:                          
 ---------------------------------------------------------------------
 Center     Atomic      Atomic             Coordinates (Angstroms)
 Number     Number       Type             X           Y           Z
 ---------------------------------------------------------------------
      1          6           0        1.001427   -0.051651    0.084861
      2          6           0        2.336133   -0.051651    0.084861
      3          1           0        0.424893   -0.740253   -0.545934
      4          1           0        0.424893    0.636950    0.715656
      5          1           0        2.912667   -0.740253   -0.545934
      6          1           0        2.912667    0.636950    0.715656
 ---------------------------------------------------------------------
                    Distance matrix (angstroms):
                    1          2          3          4          5
     1  C    0.000000
     2  C    1.334705   0.000000
     3  H    1.097482   2.127183   0.000000
     4  H    1.097482   2.127183   1.867698   0.000000
     5  H    2.127183   1.097482   2.487773   3.110838   0.000000
     6  H    2.127183   1.097482   3.110838   2.487773   1.867698
                    6
     6  H    0.000000
 Stoichiometry    C2H4
 Framework group  D2H[C2"(C.C),SG(H4)]
 Deg. of freedom     3
 Full point group                 D2H     NOp   8
 Largest Abelian subgroup         D2H     NOp   8
 Largest concise Abelian subgroup D2      NOp   4
                         Standard orientation:                         
 ---------------------------------------------------------------------
 Center     Atomic      Atomic             Coordinates (Angstroms)
 Number     Number       Type             X           Y           Z
 ---------------------------------------------------------------------
      1          6           0        0.000000   -0.000000   -0.667353
      2          6           0        0.000000    0.000000    0.667353
      3          1           0       -0.000000   -0.933849   -1.243887
      4          1           0        0.000000    0.933849   -1.243887
      5          1           0        0.000000   -0.933849    1.243887
      6          1           0       -0.000000    0.933849    1.243887
 ---------------------------------------------------------------------
 Rotational constants (GHZ):         143.7535446          29.8580221          24.7229870

 **********************************************************************

            Population analysis using the SCF Density.

 **********************************************************************

 Orbital symmetries:
       Occupied  (AG) (B1U) (AG) (B1U) (B2U) (AG) (B3G) (B3U)
       Virtual   (B2G) (AG) (B2U) (B1U) (B3G) (B1U) (AG) (B2U)
                 (AG) (B3U) (B1U) (B2G) (AG) (B1U) (B2U) (B3G)
                 (B1U) (B3G) (B3U) (B1G) (AU) (AG) (B2U) (AG) (B1U)
                 (B2G) (B3G) (B1U)
 The electronic state is 1-AG.
 Alpha  occ. eigenvalues --  -10.18583 -10.18509  -0.75090  -0.57314  -0.46841
 Alpha  occ. eigenvalues --   -0.42209  -0.35744  -0.27550
 Alpha virt. eigenvalues --    0.00634   0.08185   0.10095   0.11295   0.18430
 Alpha virt. eigenvalues --    0.32409   0.40103   0.43887   0.44165   0.48797
 Alpha virt. eigenvalues --    0.54743   0.57396   0.66876   0.68734   0.69810
 Alpha virt. eigenvalues --    0.72369   0.82077   1.07411   1.45226   1.53810
 Alpha virt. eigenvalues --    1.82349   1.83388   1.86155   2.02081   2.17712
 Alpha virt. eigenvalues --    2.36534   2.61095   2.67742
          Condensed to atoms (all electrons):
               1          2          3          4          5          6
     1  C    4.756502   0.747690   0.373640   0.373640  -0.022243  -0.022243
     2  C    0.747690   4.756502  -0.022243  -0.022243   0.373640   0.373640
     3  H    0.373640  -0.022243   0.601791  -0.049038  -0.015939   0.008296
     4  H    0.373640  -0.022243  -0.049038   0.601791   0.008296  -0.015939
     5  H   -0.022243   0.373640  -0.015939   0.008296   0.601791  -0.049038
     6  H   -0.022243   0.373640   0.008296  -0.015939  -0.049038   0.601791
 Mulliken charges:
               1
     1  C   -0.206987
     2  C   -0.206987
     3  H    0.103493
     4  H    0.103493
     5  H    0.103493
     6  H    0.103493
 Sum of Mulliken charges =   0.00000
 Mulliken charges with hydrogens summed into heavy atoms:
               1
     1  C    0.000000
     2  C    0.000000
 Electronic spatial extent (au):  <R**2>=             83.3621
 Charge=             -0.0000 electrons
 Dipole moment (field-independent basis, Debye):
    X=             -0.0000    Y=             -0.0000    Z=              0.0000  Tot=              0.0000
 Quadrupole moment (field-independent basis, Debye-Ang):
   XX=            -15.2465   YY=            -12.3739   ZZ=            -12.3525
   XY=              0.0000   XZ=             -0.0000   YZ=             -0.0000
 Traceless Quadrupole moment (field-independent basis, Debye-Ang):
   XX=             -1.9222   YY=              0.9504   ZZ=              0.9718
   XY=              0.0000   XZ=             -0.0000   YZ=             -0.0000
 Octapole moment (field-independent basis, Debye-Ang**2):
  XXX=             -0.0000  YYY=             -0.0000  ZZZ=              0.0000  XYY=             -0.0000
  XXY=             -0.0000  XXZ=              0.0000  XZZ=             -0.0000  YZZ=             -0.0000
  YYZ=              0.0000  XYZ=             -0.0000
 Hexadecapole moment (field-independent basis, Debye-Ang**3):
 XXXX=            -16.6885 YYYY=            -27.1481 ZZZZ=            -68.8091 XXXY=             -0.0000
 XXXZ=             -0.0000 YYYX=             -0.0000 YYYZ=             -0.0000 ZZZX=             -0.0000
 ZZZY=             -0.0000 XXYY=             -7.8341 XXZZ=            -14.9470 YYZZ=            -13.9744
 XXYZ=              0.0000 YYXZ=             -0.0000 ZZXY=              0.0000
 N-N= 3.314409994624D+01 E-N=-2.473556083943D+02  KE= 7.759154080791D+01
 Symmetry AG   KE= 3.740096286858D+01
 Symmetry B1G  KE= 3.327400598414D-31
 Symmetry B2G  KE= 9.571847428464D-32
 Symmetry B3G  KE= 2.066501191113D+00
 Symmetry AU   KE= 2.786689518861D-31
 Symmetry B1U  KE= 3.418379452965D+01
 Symmetry B2U  KE= 1.856408422296D+00
 Symmetry B3U  KE= 2.083873796269D+00
 Unable to Open any file for archive entry.
 1\1\GINC-NODE02\FOpt\RB3LYP\def2SVPP\C2H4\XUHJ\19-Dec-2023\0\\#N opt f
 req B3LYP/def2SVPP symm=veryloose em=gd3bj scale=0.961 press=0.987\\C=
 C_1\\0,1\C,1.0014274382,-0.05165125,0.08486125\C,2.3361325618,-0.05165
 125,0.08486125\H,0.424893414,-0.7402526778,-0.5459338068\H,0.424893414
 ,0.6369501778,0.7156563068\H,2.912666586,-0.7402526778,-0.5459338068\H
 ,2.912666586,0.6369501778,0.7156563068\\Version=ES64L-G16RevC.01\State
 =1-AG\HF=-78.5257382\RMSD=1.207e-09\RMSF=1.041e-05\Dipole=0.,0.,0.\Qua
 drupole=0.7224901,-0.2678518,-0.4546383,0.,0.,1.063777\PG=D02H [C2"(C1
 .C1),SG(H4)]\\@
 The archive entry for this job was punched.


 HERE WE GO......
 SLIDING DOWN THE RAZOR BLADE OF LIFE......
                                 TOM LEHRER
 Job cpu time:       0 days  0 hours  1 minutes  2.0 seconds.
 Elapsed time:       0 days  0 hours  0 minutes  5.5 seconds.
 File lengths (MBytes):  RWF=     17 Int=      0 D2E=      0 Chk=      2 Scr=      2
 Normal termination of Gaussian 16 at Tue Dec 19 12:51:47 2023.
 Link1:  Proceeding to internal job step number  2.
 --------------------------------------------------------------------
 #N Geom=AllCheck Guess=TCheck SCRF=Check GenChk RB3LYP/def2SVPP Freq
 --------------------------------------------------------------------
 1/10=4,29=7,30=1,38=1,40=1,113=-987000,114=961000/1,3;
 2/12=2,17=2,18=2,40=1/2;
 3/5=43,7=202,11=2,14=-4,25=1,30=1,70=2,71=2,74=-5,116=1,124=41,140=1/1,2,3;
 4/5=101/1;
 5/5=2,38=6,98=1/2;
 8/6=4,10=90,11=11/1;
 11/6=1,8=1,9=11,15=111,16=1/1,2,10;
 10/6=1/2;
 6/7=2,8=2,9=2,10=2,28=1/1;
 7/8=1,10=1,25=1/1,2,3,16;
 1/10=4,30=1/3;
 99//99;
 Structure from the checkpoint file:  "/home/software/g16tmp/Gau-66663.chk"
 -----
 C=C_1
 -----
 Charge =  0 Multiplicity = 1
 Redundant internal coordinates found in file.  (old form).
 C,0,1.0014274382,-0.05165125,0.08486125
 C,0,2.3361325618,-0.05165125,0.08486125
 H,0,0.424893414,-0.7402526778,-0.5459338068
 H,0,0.424893414,0.6369501778,0.7156563068
 H,0,2.912666586,-0.7402526778,-0.5459338068
 H,0,2.912666586,0.6369501778,0.7156563068
 Recover connectivity data from disk.

 GradGradGradGradGradGradGradGradGradGradGradGradGradGradGradGradGradGrad
 Berny optimization.
 Initialization pass.
                           ----------------------------
                           !    Initial Parameters    !
                           ! (Angstroms and Degrees)  !
 --------------------------                            --------------------------
 ! Name  Definition              Value          Derivative Info.                !
 --------------------------------------------------------------------------------
 ! R1    R(1,2)                  1.3347         calculate D2E/DX2 analytically  !
 ! R2    R(1,3)                  1.0975         calculate D2E/DX2 analytically  !
 ! R3    R(1,4)                  1.0975         calculate D2E/DX2 analytically  !
 ! R4    R(2,5)                  1.0975         calculate D2E/DX2 analytically  !
 ! R5    R(2,6)                  1.0975         calculate D2E/DX2 analytically  !
 ! A1    A(2,1,3)              121.6901         calculate D2E/DX2 analytically  !
 ! A2    A(2,1,4)              121.6901         calculate D2E/DX2 analytically  !
 ! A3    A(3,1,4)              116.6198         calculate D2E/DX2 analytically  !
 ! A4    A(1,2,5)              121.6901         calculate D2E/DX2 analytically  !
 ! A5    A(1,2,6)              121.6901         calculate D2E/DX2 analytically  !
 ! A6    A(5,2,6)              116.6198         calculate D2E/DX2 analytically  !
 ! D1    D(3,1,2,5)              0.0            calculate D2E/DX2 analytically  !
 ! D2    D(3,1,2,6)            180.0            calculate D2E/DX2 analytically  !
 ! D3    D(4,1,2,5)            180.0            calculate D2E/DX2 analytically  !
 ! D4    D(4,1,2,6)              0.0            calculate D2E/DX2 analytically  !
 --------------------------------------------------------------------------------
 Trust Radius=3.00D-01 FncErr=1.00D-07 GrdErr=1.00D-07 EigMax=2.50D+02 EigMin=1.00D-04
 Number of steps in this run=      2 maximum allowed number of steps=      2.
 GradGradGradGradGradGradGradGradGradGradGradGradGradGradGradGradGradGrad

                          Input orientation:                          
 ---------------------------------------------------------------------
 Center     Atomic      Atomic             Coordinates (Angstroms)
 Number     Number       Type             X           Y           Z
 ---------------------------------------------------------------------
      1          6           0        1.001427   -0.051651    0.084861
      2          6           0        2.336133   -0.051651    0.084861
      3          1           0        0.424893   -0.740253   -0.545934
      4          1           0        0.424893    0.636950    0.715656
      5          1           0        2.912667   -0.740253   -0.545934
      6          1           0        2.912667    0.636950    0.715656
 ---------------------------------------------------------------------
                    Distance matrix (angstroms):
                    1          2          3          4          5
     1  C    0.000000
     2  C    1.334705   0.000000
     3  H    1.097482   2.127183   0.000000
     4  H    1.097482   2.127183   1.867698   0.000000
     5  H    2.127183   1.097482   2.487773   3.110838   0.000000
     6  H    2.127183   1.097482   3.110838   2.487773   1.867698
                    6
     6  H    0.000000
 Stoichiometry    C2H4
 Framework group  D2H[C2"(C.C),SG(H4)]
 Deg. of freedom     3
 Full point group                 D2H     NOp   8
 Largest Abelian subgroup         D2H     NOp   8
 Largest concise Abelian subgroup D2      NOp   4
                         Standard orientation:                         
 ---------------------------------------------------------------------
 Center     Atomic      Atomic             Coordinates (Angstroms)
 Number     Number       Type             X           Y           Z
 ---------------------------------------------------------------------
      1          6           0       -0.000000    0.000000   -0.667353
      2          6           0        0.000000    0.000000    0.667353
      3          1           0       -0.000000   -0.933849   -1.243887
      4          1           0       -0.000000    0.933849   -1.243887
      5          1           0        0.000000   -0.933849    1.243887
      6          1           0       -0.000000    0.933849    1.243887
 ---------------------------------------------------------------------
 Rotational constants (GHZ):         143.7535446          29.8580221          24.7229870
 Standard basis: def2SVPP (5D, 7F)
 There are    10 symmetry adapted cartesian basis functions of AG  symmetry.
 There are     1 symmetry adapted cartesian basis functions of B1G symmetry.
 There are     3 symmetry adapted cartesian basis functions of B2G symmetry.
 There are     5 symmetry adapted cartesian basis functions of B3G symmetry.
 There are     1 symmetry adapted cartesian basis functions of AU  symmetry.
 There are    10 symmetry adapted cartesian basis functions of B1U symmetry.
 There are     5 symmetry adapted cartesian basis functions of B2U symmetry.
 There are     3 symmetry adapted cartesian basis functions of B3U symmetry.
 There are     9 symmetry adapted basis functions of AG  symmetry.
 There are     1 symmetry adapted basis functions of B1G symmetry.
 There are     3 symmetry adapted basis functions of B2G symmetry.
 There are     5 symmetry adapted basis functions of B3G symmetry.
 There are     1 symmetry adapted basis functions of AU  symmetry.
 There are     9 symmetry adapted basis functions of B1U symmetry.
 There are     5 symmetry adapted basis functions of B2U symmetry.
 There are     3 symmetry adapted basis functions of B3U symmetry.
    36 basis functions,    66 primitive gaussians,    38 cartesian basis functions
     8 alpha electrons        8 beta electrons
       nuclear repulsion energy        33.1480337557 Hartrees.
 NAtoms=    6 NActive=    6 NUniq=    2 SFac= 4.00D+00 NAtFMM=   60 NAOKFM=F Big=F
 Integral buffers will be    131072 words long.
 Raffenetti 2 integral format.
 Two-electron integral symmetry is turned on.
 Nuclear repulsion after empirical dispersion term =       33.1440999462 Hartrees.
 One-electron integrals computed using PRISM.
   8 Symmetry operations used in ECPInt.
 ECPInt:  NShTT=     210 NPrTT=     858 LenC2=     211 LenP2D=     801.
 LDataN:  DoStor=T MaxTD1= 4 Len=   56
 NBasis=    36 RedAO= T EigKep=  4.74D-03  NBF=     9     1     3     5     1     9     5     3
 NBsUse=    36 1.00D-06 EigRej= -1.00D+00 NBFU=     9     1     3     5     1     9     5     3
 Initial guess from the checkpoint file:  "/home/software/g16tmp/Gau-66663.chk"
 B after Tr=    -0.000000   -0.000000    0.000000
         Rot=    1.000000    0.000000   -0.000000   -0.000000 Ang=   0.00 deg.
 Initial guess orbital symmetries:
       Occupied  (AG) (B1U) (AG) (B1U) (B2U) (AG) (B3G) (B3U)
       Virtual   (B2G) (AG) (B2U) (B1U) (B3G) (B1U) (AG) (B2U)
                 (AG) (B3U) (B1U) (B2G) (AG) (B1U) (B2U) (B3G)
                 (B1U) (B3G) (B3U) (B1G) (AU) (AG) (B2U) (AG) (B1U)
                 (B2G) (B3G) (B1U)
 Keep R1 ints in memory in symmetry-blocked form, NReq=14053953.
 Requested convergence on RMS density matrix=1.00D-08 within 128 cycles.
 Requested convergence on MAX density matrix=1.00D-06.
 Requested convergence on             energy=1.00D-06.
 No special actions if energy rises.
 Skip diagonalization as Alpha Fock matrix is already diagonal.
 SCF Done:  E(RB3LYP) =  -78.5257381898     A.U. after    1 cycles
            NFock=  1  Conv=0.00D+00     -V/T= 2.0120
 DoSCS=F DFT=T ScalE2(SS,OS)=  1.000000  1.000000
 Range of M.O.s used for correlation:     1    36
 NBasis=    36 NAE=     8 NBE=     8 NFC=     0 NFV=     0
 NROrb=     36 NOA=     8 NOB=     8 NVA=    28 NVB=    28
   8 Symmetry operations used in ECPInt.
 ECPInt:  NShTT=     210 NPrTT=     858 LenC2=     211 LenP2D=     801.
 LDataN:  DoStor=T MaxTD1= 5 Len=  102
 Symmetrizing basis deriv contribution to polar:
 IMax=3 JMax=2 DiffMx= 0.00D+00
 G2DrvN: will do     7 centers at a time, making    1 passes.
 Calling FoFCou, ICntrl=  3107 FMM=F I1Cent=   0 AccDes= 0.00D+00.
 End of G2Drv F.D. properties file   721 does not exist.
 End of G2Drv F.D. properties file   722 does not exist.
 End of G2Drv F.D. properties file   788 does not exist.
          IDoAtm=111111
          Differentiating once with respect to electric field.
                with respect to dipole field.
          Differentiating once with respect to nuclear coordinates.
 Keep R1 ints in memory in symmetry-blocked form, NReq=14003376.
          There are     9 degrees of freedom in the 1st order CPHF.  IDoFFX=4 NUNeed=     9.
      9 vectors produced by pass  0 Test12= 2.49D-15 1.11D-08 XBig12= 3.27D+01 4.90D+00.
 AX will form     9 AO Fock derivatives at one time.
      9 vectors produced by pass  1 Test12= 2.49D-15 1.11D-08 XBig12= 8.04D+00 1.21D+00.
      9 vectors produced by pass  2 Test12= 2.49D-15 1.11D-08 XBig12= 1.74D-01 1.26D-01.
      9 vectors produced by pass  3 Test12= 2.49D-15 1.11D-08 XBig12= 9.37D-04 1.66D-02.
      9 vectors produced by pass  4 Test12= 2.49D-15 1.11D-08 XBig12= 3.52D-06 6.18D-04.
      7 vectors produced by pass  5 Test12= 2.49D-15 1.11D-08 XBig12= 2.19D-09 1.47D-05.
      2 vectors produced by pass  6 Test12= 2.49D-15 1.11D-08 XBig12= 1.65D-12 3.31D-07.
 InvSVY:  IOpt=1 It=  1 EMax= 8.88D-16
 Solved reduced A of dimension    54 with     9 vectors.
 Isotropic polarizability for W=    0.000000       20.94 Bohr**3.
 End of Minotr F.D. properties file   721 does not exist.
 End of Minotr F.D. properties file   722 does not exist.
 End of Minotr F.D. properties file   788 does not exist.

 **********************************************************************

            Population analysis using the SCF Density.

 **********************************************************************

 Orbital symmetries:
       Occupied  (AG) (B1U) (AG) (B1U) (B2U) (AG) (B3G) (B3U)
       Virtual   (B2G) (AG) (B2U) (B1U) (B3G) (B1U) (AG) (B2U)
                 (AG) (B3U) (B1U) (B2G) (AG) (B1U) (B2U) (B3G)
                 (B1U) (B3G) (B3U) (B1G) (AU) (AG) (B2U) (AG) (B1U)
                 (B2G) (B3G) (B1U)
 The electronic state is 1-AG.
 Alpha  occ. eigenvalues --  -10.18583 -10.18509  -0.75090  -0.57314  -0.46841
 Alpha  occ. eigenvalues --   -0.42209  -0.35744  -0.27550
 Alpha virt. eigenvalues --    0.00634   0.08185   0.10095   0.11295   0.18430
 Alpha virt. eigenvalues --    0.32409   0.40103   0.43887   0.44165   0.48797
 Alpha virt. eigenvalues --    0.54743   0.57396   0.66876   0.68734   0.69810
 Alpha virt. eigenvalues --    0.72369   0.82077   1.07411   1.45226   1.53810
 Alpha virt. eigenvalues --    1.82349   1.83388   1.86155   2.02081   2.17712
 Alpha virt. eigenvalues --    2.36534   2.61095   2.67742
          Condensed to atoms (all electrons):
               1          2          3          4          5          6
     1  C    4.756502   0.747690   0.373640   0.373640  -0.022243  -0.022243
     2  C    0.747690   4.756502  -0.022243  -0.022243   0.373640   0.373640
     3  H    0.373640  -0.022243   0.601791  -0.049038  -0.015939   0.008296
[...]
   8 Symmetry operations used in ECPInt.
 ECPInt:  NShTT=     210 NPrTT=     858 LenC2=     211 LenP2D=     801.
 LDataN:  DoStor=T MaxTD1= 6 Len=  172
 Calling FoFJK, ICntrl=    100127 FMM=F ISym2X=1 I1Cent= 0 IOpClX= 0 NMat=1 NMatS=1 NMatT=0.
 Full mass-weighted force constant matrix:
 Low frequencies ---   -0.0014   -0.0010   -0.0004    5.7234    9.8668   15.2373
 Low frequencies ---  825.8271  961.8060  962.6554
 Diagonal vibrational polarizability:
        2.5173658       0.0870346       0.1191795
 Harmonic frequencies (cm**-1), IR intensities (KM/Mole), Raman scattering
 activities (A**4/AMU), depolarization ratios for plane and unpolarized
 incident light, reduced masses (AMU), force constants (mDyne/A),
 and normal coordinates:
                      1                      2                      3
                     B2U                    B3U                    B2G
 Frequencies --    825.8271               961.8060               962.6554
 Red. masses --      1.0422                 1.1607                 1.5214
 Frc consts  --      0.4188                 0.6326                 0.8307
 IR Inten    --      0.8596                86.5343                 0.0000
  Atom  AN      X      Y      Z        X      Y      Z        X      Y      Z
     1   6     0.00   0.04  -0.00    -0.08  -0.00  -0.00     0.15  -0.00   0.00
     2   6    -0.00   0.04   0.00    -0.08   0.00  -0.00    -0.15   0.00  -0.00
     3   1    -0.00  -0.24   0.44     0.50   0.00  -0.00    -0.49  -0.00  -0.00
     4   1     0.00  -0.24  -0.44     0.50  -0.00   0.00    -0.49   0.00   0.00
     5   1     0.00  -0.24  -0.44     0.50  -0.00   0.00     0.49   0.00   0.00
     6   1    -0.00  -0.24   0.44     0.50  -0.00  -0.00     0.49  -0.00  -0.00
                      4                      5                      6
                     AU                     B3G                    AG
 Frequencies --   1055.3129              1228.4583              1367.2606
 Red. masses --      1.0078                 1.5261                 1.1811
 Frc consts  --      0.6613                 1.3569                 1.3009
 IR Inten    --      0.0000                 0.0000                 0.0000
  Atom  AN      X      Y      Z        X      Y      Z        X      Y      Z
     1   6    -0.00   0.00   0.00    -0.00   0.15   0.00    -0.00   0.00   0.09
     2   6     0.00  -0.00  -0.00    -0.00  -0.15   0.00     0.00   0.00  -0.09
     3   1     0.50  -0.00   0.00    -0.00  -0.14   0.47     0.00  -0.20   0.45
     4   1    -0.50  -0.00  -0.00     0.00  -0.14  -0.47     0.00   0.20   0.45
     5   1    -0.50  -0.00  -0.00     0.00   0.14   0.47    -0.00  -0.20  -0.45
     6   1     0.50  -0.00  -0.00    -0.00   0.14  -0.47    -0.00   0.20  -0.45
                      7                      8                      9
                     B1U                    AG                     B1U
 Frequencies --   1453.4173              1706.2435              3122.2838
 Red. masses --      1.1119                 3.4359                 1.0478
 Frc consts  --      1.3839                 5.8934                 6.0180
 IR Inten    --      6.3506                 0.0000                13.8657
  Atom  AN      X      Y      Z        X      Y      Z        X      Y      Z
     1   6     0.00   0.00  -0.07    -0.00   0.00   0.33     0.00  -0.00  -0.04
     2   6     0.00  -0.00  -0.07     0.00   0.00  -0.33    -0.00   0.00  -0.04
     3   1     0.00  -0.28   0.41     0.00   0.38  -0.22    -0.00   0.43   0.25
     4   1    -0.00   0.28   0.41     0.00  -0.38  -0.22    -0.00  -0.43   0.25
     5   1    -0.00   0.28   0.41    -0.00   0.38   0.22     0.00  -0.43   0.25
     6   1     0.00  -0.28   0.41    -0.00  -0.38   0.22     0.00   0.43   0.25
                     10                     11                     12
                     AG                     B3G                    B2U
 Frequencies --   3136.8387              3194.0608              3217.4214
 Red. masses --      1.0751                 1.1166                 1.1183
 Frc consts  --      6.2330                 6.7118                 6.8206
 IR Inten    --      0.0000                 0.0000                20.4314
  Atom  AN      X      Y      Z        X      Y      Z        X      Y      Z
     1   6     0.00   0.00  -0.06    -0.00  -0.07   0.00     0.00  -0.07  -0.00
     2   6     0.00   0.00   0.06     0.00   0.07   0.00    -0.00  -0.07   0.00
     3   1    -0.00   0.43   0.26    -0.00   0.42   0.26    -0.00   0.42   0.26
     4   1    -0.00  -0.43   0.26     0.00   0.42  -0.26     0.00   0.42  -0.26
     5   1    -0.00   0.43  -0.26    -0.00  -0.42   0.26     0.00   0.42  -0.26
     6   1    -0.00  -0.43  -0.26    -0.00  -0.42  -0.26     0.00   0.42   0.26

 -------------------
 - Thermochemistry -
 -------------------
 Temperature   298.150 Kelvin.  Pressure   0.98700 Atm.
 Thermochemistry will use frequencies scaled by 0.9610.
 Atom     1 has atomic number  6 and mass  12.00000
 Atom     2 has atomic number  6 and mass  12.00000
 Atom     3 has atomic number  1 and mass   1.00783
 Atom     4 has atomic number  1 and mass   1.00783
 Atom     5 has atomic number  1 and mass   1.00783
 Atom     6 has atomic number  1 and mass   1.00783
 Molecular mass:    28.03130 amu.
 Principal axes and moments of inertia in atomic units:
                           1         2         3
     Eigenvalues --    12.55441  60.44410  72.99851
           X            0.00000  -0.00000   1.00000
           Y           -0.00000   1.00000   0.00000
           Z            1.00000   0.00000  -0.00000
 This molecule is an asymmetric top.
 Rotational symmetry number  4.
 Rotational temperatures (Kelvin)      6.89908     1.43296     1.18652
 Rotational constants (GHZ):         143.75354    29.85802    24.72299
 Zero-point vibrational energy     127788.4 (Joules/Mol)
                                   30.54216 (Kcal/Mol)
 Vibrational temperatures:   1141.84  1329.86  1331.03  1459.14  1698.55
          (Kelvin)           1890.46  2009.59  2359.16  4317.07  4337.20
                             4416.32  4448.61
 
 Zero-point correction=                           0.048672 (Hartree/Particle)
 Thermal correction to Energy=                    0.051757
 Thermal correction to Enthalpy=                  0.052701
 Thermal correction to Gibbs Free Energy=         0.027756
 Sum of electronic and zero-point Energies=            -78.477066
 Sum of electronic and thermal Energies=               -78.473981
 Sum of electronic and thermal Enthalpies=             -78.473037
 Sum of electronic and thermal Free Energies=          -78.497983
 
                     E (Thermal)             CV                S
                      KCal/Mol        Cal/Mol-Kelvin    Cal/Mol-Kelvin
 Total                   32.478              8.432             52.503
 Electronic               0.000              0.000              0.000
 Translational            0.889              2.981             35.953
 Rotational               0.889              2.981             15.900
 Vibrational             30.701              2.470              0.649
                       Q            Log10(Q)             Ln(Q)
 Total Bot       0.171134D-12        -12.766665        -29.396332
 Total V=0       0.417732D+10          9.620898         22.152935
 Vib (Bot)       0.434726D-22        -22.361784        -51.489911
 Vib (V=0)       0.106115D+01          0.025778          0.059356
 Electronic      0.100000D+01          0.000000          0.000000
 Translational   0.591019D+07          6.771602         15.592189
 Rotational      0.666067D+03          2.823518          6.501390
 ***** Axes restored to original set *****
 -------------------------------------------------------------------
 Center     Atomic                   Forces (Hartrees/Bohr)
 Number     Number              X              Y              Z
 -------------------------------------------------------------------
      1        6           0.000005311   -0.000000000    0.000000000
      2        6          -0.000005311   -0.000000000   -0.000000000
      3        1           0.000013302    0.000012690    0.000011625
      4        1           0.000013302   -0.000012690   -0.000011625
      5        1          -0.000013302    0.000012690    0.000011625
      6        1          -0.000013302   -0.000012690   -0.000011625
 -------------------------------------------------------------------
 Cartesian Forces:  Max     0.000013302 RMS     0.000010406
 FormGI is forming the generalized inverse of G from B-inverse, IUseBI=4.

 GradGradGradGradGradGradGradGradGradGradGradGradGradGradGradGradGradGrad
 Berny optimization.
 Internal  Forces:  Max     0.000031915 RMS     0.000013953
 Search for a local minimum.
 Step number   1 out of a maximum of    2
 All quantities printed in internal units (Hartrees-Bohrs-Radians)
 Second derivative matrix not updated -- analytic derivatives used.
 The second derivative matrix:
                          R1        R2        R3        R4        R5
           R1           0.64681
           R2           0.00641   0.35386
           R3           0.00641   0.00261   0.35386
           R4           0.00641   0.00058  -0.00049   0.35386
           R5           0.00641  -0.00049   0.00058   0.00261   0.35386
           A1           0.01023   0.00392  -0.01049  -0.00336   0.00419
           A2           0.01023  -0.01049   0.00392   0.00419  -0.00336
           A3          -0.02046   0.00657   0.00657  -0.00083  -0.00083
           A4           0.01023  -0.00336   0.00419   0.00392  -0.01049
           A5           0.01023   0.00419  -0.00336  -0.01049   0.00392
           A6          -0.02046  -0.00083  -0.00083   0.00657   0.00657
           D1           0.00000  -0.00000  -0.00000  -0.00000   0.00000
           D2          -0.00000   0.00000  -0.00000  -0.00000  -0.00000
           D3           0.00000   0.00000   0.00000   0.00000   0.00000
           D4          -0.00000   0.00000   0.00000  -0.00000  -0.00000
                          A1        A2        A3        A4        A5
           A1           0.08115
           A2          -0.04516   0.08115
           A3          -0.03598  -0.03598   0.07197
           A4          -0.00872   0.01016  -0.00144   0.08115
           A5           0.01016  -0.00872  -0.00144  -0.04516   0.08115
           A6          -0.00144  -0.00144   0.00288  -0.03598  -0.03598
           D1           0.00000  -0.00000   0.00000  -0.00000  -0.00000
           D2           0.00000  -0.00000  -0.00000  -0.00000   0.00000
           D3          -0.00000   0.00000   0.00000   0.00000  -0.00000
           D4          -0.00000   0.00000  -0.00000   0.00000   0.00000
                          A6        D1        D2        D3        D4
           A6           0.07197
           D1           0.00000   0.02564
           D2          -0.00000   0.00827   0.03178
           D3           0.00000   0.00827  -0.01524   0.03178
           D4          -0.00000  -0.00911   0.00827   0.00827   0.02564
 ITU=  0
     Eigenvalues ---    0.03306   0.03474   0.04702   0.10298   0.10724
     Eigenvalues ---    0.10947   0.14287   0.35250   0.35252   0.35653
     Eigenvalues ---    0.35704   0.64965
 Angle between quadratic step and forces=  20.82 degrees.
 Linear search not attempted -- first point.
 Iteration  1 RMS(Cart)=  0.00004494 RMS(Int)=  0.00000001
 Iteration  2 RMS(Cart)=  0.00000000 RMS(Int)=  0.00000001
 ClnCor:  largest displacement from symmetrization is 7.13D-09 for atom     5.
 Variable       Old X    -DE/DX   Delta X   Delta X   Delta X     New X
                                 (Linear)    (Quad)   (Total)
    R1        2.52223  -0.00003   0.00000  -0.00004  -0.00004   2.52218
    R2        2.07394  -0.00002   0.00000  -0.00006  -0.00006   2.07388
    R3        2.07394  -0.00002   0.00000  -0.00006  -0.00006   2.07388
    R4        2.07394  -0.00002   0.00000  -0.00006  -0.00006   2.07388
    R5        2.07394  -0.00002   0.00000  -0.00006  -0.00006   2.07388
    A1        2.12389  -0.00000   0.00000  -0.00001  -0.00001   2.12388
    A2        2.12389  -0.00000   0.00000  -0.00001  -0.00001   2.12388
    A3        2.03540   0.00000   0.00000   0.00003   0.00003   2.03543
    A4        2.12389  -0.00000   0.00000  -0.00001  -0.00001   2.12388
    A5        2.12389  -0.00000   0.00000  -0.00001  -0.00001   2.12388
    A6        2.03540   0.00000   0.00000   0.00003   0.00003   2.03543
    D1        0.00000  -0.00000   0.00000  -0.00000   0.00000   0.00000
    D2        3.14159   0.00000   0.00000   0.00000   0.00000   3.14159
    D3        3.14159  -0.00000   0.00000  -0.00000  -0.00000   3.14159
    D4       -0.00000   0.00000   0.00000   0.00000   0.00000   0.00000
         Item               Value     Threshold  Converged?
 Maximum Force            0.000032     0.000450     YES
 RMS     Force            0.000014     0.000300     YES
 Maximum Displacement     0.000077     0.001800     YES
 RMS     Displacement     0.000045     0.001200     YES
 Predicted change in Energy=-3.450494D-09
 Optimization completed.
    -- Stationary point found.
                           ----------------------------
                           !   Optimized Parameters   !
                           ! (Angstroms and Degrees)  !
 --------------------------                            --------------------------
 ! Name  Definition              Value          Derivative Info.                !
 --------------------------------------------------------------------------------
 ! R1    R(1,2)                  1.3347         -DE/DX =    0.0                 !
 ! R2    R(1,3)                  1.0975         -DE/DX =    0.0                 !
 ! R3    R(1,4)                  1.0975         -DE/DX =    0.0                 !
 ! R4    R(2,5)                  1.0975         -DE/DX =    0.0                 !
 ! R5    R(2,6)                  1.0975         -DE/DX =    0.0                 !
 ! A1    A(2,1,3)              121.6901         -DE/DX =    0.0                 !
 ! A2    A(2,1,4)              121.6901         -DE/DX =    0.0                 !
 ! A3    A(3,1,4)              116.6198         -DE/DX =    0.0                 !
 ! A4    A(1,2,5)              121.6901         -DE/DX =    0.0                 !
 ! A5    A(1,2,6)              121.6901         -DE/DX =    0.0                 !
 ! A6    A(5,2,6)              116.6198         -DE/DX =    0.0                 !
 ! D1    D(3,1,2,5)              0.0            -DE/DX =    0.0                 !
 ! D2    D(3,1,2,6)            180.0            -DE/DX =    0.0                 !
 ! D3    D(4,1,2,5)            180.0            -DE/DX =    0.0                 !
 ! D4    D(4,1,2,6)              0.0            -DE/DX =    0.0                 !
 --------------------------------------------------------------------------------
 GradGradGradGradGradGradGradGradGradGradGradGradGradGradGradGradGradGrad

 Dipole is zero, so no output in dipole orientation.

 ----------------------------------------------------------------------

 Electric dipole moment (input orientation):
 (Debye = 10**-18 statcoulomb cm , SI units = C m)
                  (au)            (Debye)         (10**-30 SI)
   Tot        0.000000D+00      0.000000D+00      0.000000D+00
   x          0.000000D+00      0.000000D+00      0.000000D+00
   y          0.000000D+00      0.000000D+00      0.000000D+00
   z          0.000000D+00      0.000000D+00      0.000000D+00

 Dipole polarizability, Alpha (input orientation).
 (esu units = cm**3 , SI units = C**2 m**2 J**-1)
 Alpha(0;0):
               (au)            (10**-24 esu)      (10**-40 SI)
   iso        0.209402D+02      0.310302D+01      0.345257D+01
   aniso      0.185714D+02      0.275199D+01      0.306200D+01
   xx         0.318408D+02      0.471833D+01      0.524985D+01
   yx         0.000000D+00      0.000000D+00      0.000000D+00
   yy         0.159345D+02      0.236125D+01      0.262725D+01
   zx         0.000000D+00      0.000000D+00      0.000000D+00
   zy         0.506452D+01      0.750484D+00      0.835026D+00
   zz         0.150452D+02      0.222947D+01      0.248063D+01

 ----------------------------------------------------------------------
 Unable to Open any file for archive entry.
 1\1\GINC-NODE02\Freq\RB3LYP\def2SVPP\C2H4\XUHJ\19-Dec-2023\0\\#N Geom=
 AllCheck Guess=TCheck SCRF=Check GenChk RB3LYP/def2SVPP Freq\\C=C_1\\0
 ,1\C,1.0014274382,-0.05165125,0.08486125\C,2.3361325618,-0.05165125,0.
 08486125\H,0.424893414,-0.7402526778,-0.5459338068\H,0.424893414,0.636
 9501778,0.7156563068\H,2.912666586,-0.7402526778,-0.5459338068\H,2.912
 666586,0.6369501778,0.7156563068\\Version=ES64L-G16RevC.01\State=1-AG\
 HF=-78.5257382\RMSD=0.000e+00\RMSF=1.041e-05\ZeroPoint=0.048672\Therma
 l=0.0517571\ETot=-78.4739811\HTot=-78.473037\GTot=-78.4979826\Dipole=0
 .,0.,0.\DipoleDeriv=-0.0036227,0.,0.,0.,-0.0704613,0.1889756,0.,0.1889
 756,-0.1036431,-0.0036227,0.,0.,0.,-0.0704613,0.1889756,0.,0.1889756,-
 0.1036431,0.0018113,-0.0363182,-0.0332694,-0.0532806,0.0352306,-0.0944
 878,-0.0488078,-0.0944878,0.0518216,0.0018113,0.0363182,0.0332694,0.05
 32806,0.0352306,-0.0944878,0.0488078,-0.0944878,0.0518216,0.0018113,0.
 0363182,0.0332694,0.0532806,0.0352306,-0.0944878,0.0488078,-0.0944878,
 0.0518216,0.0018113,-0.0363182,-0.0332694,-0.0532806,0.0352306,-0.0944
 878,-0.0488078,-0.0944878,0.0518216\Polar=31.8408453,0.,15.9345096,0.,
 5.0645187,15.0452409\Quadrupole=0.7224901,-0.2678518,-0.4546383,0.,0.,
 1.063777\PG=D02H [C2"(C1.C1),SG(H4)]\NImag=0\\0.87176037,0.,0.39303648
 ,0.,0.26134229,0.34714791,-0.58953453,0.,0.,0.87176037,0.,-0.08377905,
 -0.03339017,0.,0.39303648,0.,-0.03339017,-0.07791614,0.,0.26134229,0.3
 4714791,-0.12843844,-0.08760069,-0.08024683,-0.01267448,-0.02138603,-0
 .01959073,0.13440515,-0.09124779,-0.15959597,-0.11330887,0.00114541,0.
 00496725,-0.00066719,0.09896107,0.15862345,-0.08358777,-0.11330887,-0.
 13970029,0.00104925,-0.00066719,0.00508441,0.09065354,0.12354800,0.136
 92990,-0.12843844,0.08760069,0.08024683,-0.01267447,0.02138603,0.01959
 073,0.00999447,-0.00942572,-0.00863446,0.13440515,0.09124779,-0.159595
 97,-0.11330887,-0.00114541,0.00496725,-0.00066719,0.00942572,-0.007327
 02,-0.00901236,-0.09896107,0.15862345,0.08358777,-0.11330887,-0.139700
 29,-0.00104925,-0.00066719,0.00508441,0.00863446,-0.00901236,-0.005744
 56,-0.09065354,0.12354800,0.13692990,-0.01267448,0.02138603,0.01959073
 ,-0.12843844,0.08760069,0.08024683,0.00142327,-0.00001644,-0.00001506,
 -0.00470998,-0.00058348,-0.00053450,0.13440515,-0.00114541,0.00496725,
 -0.00066719,0.09124779,-0.15959597,-0.11330887,0.00001644,-0.00322654,
 0.00496369,-0.00058348,0.00655882,-0.00552327,-0.09896107,0.15862345,-
 0.00104925,-0.00066719,0.00508441,0.08358777,-0.11330887,-0.13970029,0
 .00001506,0.00496369,-0.00409810,-0.00053450,-0.00552327,0.00752864,-0
 .09065354,0.12354800,0.13692990,-0.01267447,-0.02138603,-0.01959073,-0
 .12843844,-0.08760069,-0.08024683,-0.00470998,0.00058348,0.00053450,0.
 00142327,0.00001644,0.00001506,0.00999447,0.00942572,0.00863446,0.1344
 0515,0.00114541,0.00496725,-0.00066719,-0.09124779,-0.15959597,-0.1133
 0887,0.00058348,0.00655882,-0.00552327,-0.00001644,-0.00322654,0.00496
 369,-0.00942572,-0.00732702,-0.00901236,0.09896107,0.15862345,0.001049
 25,-0.00066719,0.00508441,-0.08358777,-0.11330887,-0.13970029,0.000534
 50,-0.00552327,0.00752864,-0.00001506,0.00496369,-0.00409810,-0.008634
 46,-0.00901236,-0.00574456,0.09065354,0.12354800,0.13692990\\-0.000005
 31,0.,0.,0.00000531,0.,0.,-0.00001330,-0.00001269,-0.00001163,-0.00001
 330,0.00001269,0.00001163,0.00001330,-0.00001269,-0.00001163,0.0000133
 0,0.00001269,0.00001163\\\@
 The archive entry for this job was punched.


 TRUST EVERYONE, BUT CUT THE CARDS.
 Job cpu time:       0 days  0 hours  0 minutes 31.9 seconds.
 Elapsed time:       0 days  0 hours  0 minutes  2.7 seconds.
 File lengths (MBytes):  RWF=     17 Int=      0 D2E=      0 Chk=      2 Scr=      2
 Normal termination of Gaussian 16 at Tue Dec 19 12:51:50 2023.
