 Entering Gaussian System, Link 0=g16
 Initial command:
 /home/software/g16/l1.exe "/home/software/g16tmp/Gau-78872.inp" -scrdir="/home/software/g16tmp/"
 Default is to use a total of   8 processors:
                                8 via shared-memory
                                1 via Linda
 Entering Link 1 = /home/software/g16/l1.exe PID=     78873.
  
 Copyright (c) 1988-2019, Gaussian, Inc.  All Rights Reserved.
  
 This is part of the Gaussian(R) 16 program.  It is based on
 the Gaussian(R) 09 system (copyright 2009, Gaussian, Inc.),
 the Gaussian(R) 03 system (copyright 2003, Gaussian, Inc.),
 the Gaussian(R) 98 system (copyright 1998, Gaussian, Inc.),
 the Gaussian(R) 94 system (copyright 1995, Gaussian, Inc.),
 the Gaussian 92(TM) system (copyright 1992, Gaussian, Inc.),
 the Gaussian 90(TM) system (copyright 1990, Gaussian, Inc.),
 the Gaussian 88(TM) system (copyright 1988, Gaussian, Inc.),
 the Gaussian 86(TM) system (copyright 1986, Carnegie Mellon
 University), and the Gaussian 82(TM) system (copyright 1983,
 Carnegie Mellon University). Gaussian is a federally registered
 trademark of Gaussian, Inc.
  
 This software contains proprietary and confidential information,
 including trade secrets, belonging to Gaussian, Inc.
  
 This software is provided under written license and may be
 used, copied, transmitted, or stored only in accord with that
 written license.
  
 The following legend is applicable only to US Government
 contracts under FAR:
  
                    RESTRICTED RIGHTS LEGEND
  
 Use, reproduction and disclosure by the US Government is
 subject to restrictions as set forth in subparagraphs (a)
 and (c) of the Commercial Computer Software - Restricted
 Rights clause in FAR 52.227-19.
  
 Gaussian, Inc.
 340 Quinnipiac St., Bldg. 40, Wallingford CT 06492
  
  
 ---------------------------------------------------------------
 Warning -- This program may not be used in any manner that
 competes with the business of Gaussian, Inc. or will provide
 assistance to any competitor of Gaussian, Inc.  The licensee
 of this program is prohibited from giving any competitor of
 Gaussian, Inc. access to this program.  By using this program,
 the user acknowledges that Gaussian, Inc. is engaged in the
 business of creating and licensing software in the field of
 computational chemistry and represents and warrants to the
 licensee that it is not a competitor of Gaussian, Inc. and that
 it will not use this program in any manner prohibited above.
 ---------------------------------------------------------------
  

 Cite this work as:
 Gaussian 16, Revision C.01,
 M. J. Frisch, G. W. Trucks, H. B. Schlegel, G. E. Scuseria, 
 M. A. Robb, J. R. Cheeseman, G. Scalmani, V. Barone, 
 G. A. Petersson, H. Nakatsuji, X. Li, M. Caricato, A. V. Marenich, 
 J. Bloino, B. G. Janesko, R. Gomperts, B. Mennucci, H. P. Hratchian, 
 J. V. Ortiz, A. F. Izmaylov, J. L. Sonnenberg, D. Williams-Young, 
 F. Ding, F. Lipparini, F. Egidi, J. Goings, B. Peng, A. Petrone, 
 T. Henderson, D. Ranasinghe, V. G. Zakrzewski, J. Gao, N. Rega, 
 G. Zheng, W. Liang, M. Hada, M. Ehara, K. Toyota, R. Fukuda, 
 J. Hasegawa, M. Ishida, T. Nakajima, Y. Honda, O. Kitao, H. Nakai, 
 T. Vreven, K. Throssell, J. A. Montgomery, Jr., J. E. Peralta, 
 F. Ogliaro, M. J. Bearpark, J. J. Heyd, E. N. Brothers, K. N. Kudin, 
 V. N. Staroverov, T. A. Keith, R. Kobayashi, J. Normand, 
 K. Raghavachari, A. P. Rendell, J. C. Burant, S. S. Iyengar, 
 J. Tomasi, M. Cossi, J. M. Millam, M. Klene, C. Adamo, R. Cammi, 
 J. W. Ochterski, R. L. Martin, K. Morokuma, O. Farkas, 
 J. B. Foresman, and D. J. Fox, Gaussian, Inc., Wallingford CT, 2019.
 
 ******************************************
 Gaussian 16:  ES64L-G16RevC.01  3-Jul-2019
                19-Dec-2023 
 ******************************************
 %nprocshared=16
 Will use up to   16 processors via shared memory.
 %mem=320MB
 ----------------------------------------------------------------------
 #N opt freq B3LYP/def2SVPP symm=veryloose em=gd3bj scale=0.961 press=0
 .987
 ----------------------------------------------------------------------
 1/18=20,19=15,26=3,38=1,113=-987000,114=961000/1,3;
 2/9=110,12=2,17=2,18=2,40=1/2;
 3/5=43,7=202,11=2,25=1,30=1,71=1,74=-5,124=41/1,2,3;
 4//1;
 5/5=2,38=5/2;
 6/7=2,8=2,9=2,10=2,28=1/1;
 7//1,2,3,16;
 1/18=20,19=15,26=3/3(2);
 2/9=110/2;
 99//99;
 2/9=110/2;
 3/5=43,7=202,11=2,25=1,30=1,71=1,74=-5,124=41/1,2,3;
 4/5=5,16=3,69=1/1;
 5/5=2,38=5/2;
 7//1,2,3,16;
 1/18=20,19=15,26=3/3(-5);
 2/9=110/2;
 6/7=2,8=2,9=2,10=2,19=2,28=1/1;
 99/9=1/99;
 ---
 C_1
 ---
 Symbolic Z-matrix:
 Charge =  0 Multiplicity = 1
 C                     1.02439  -0.0968    0.00583 
 H                     2.13379  -0.09681   0.00582 
 H                     0.6546    0.47076   0.88439 
 H                     0.65459  -1.14145   0.05807 
 H                     0.65459   0.38027  -0.92498 
 

 GradGradGradGradGradGradGradGradGradGradGradGradGradGradGradGradGradGrad
 Berny optimization.
 Initialization pass.
                           ----------------------------
                           !    Initial Parameters    !
                           ! (Angstroms and Degrees)  !
 --------------------------                            --------------------------
 ! Name  Definition              Value          Derivative Info.                !
 --------------------------------------------------------------------------------
 ! R1    R(1,2)                  1.1094         estimate D2E/DX2                !
 ! R2    R(1,3)                  1.1094         estimate D2E/DX2                !
 ! R3    R(1,4)                  1.1094         estimate D2E/DX2                !
 ! R4    R(1,5)                  1.1094         estimate D2E/DX2                !
 ! A1    A(2,1,3)              109.4716         estimate D2E/DX2                !
 ! A2    A(2,1,4)              109.4707         estimate D2E/DX2                !
 ! A3    A(2,1,5)              109.4711         estimate D2E/DX2                !
 ! A4    A(3,1,4)              109.4715         estimate D2E/DX2                !
 ! A5    A(3,1,5)              109.4717         estimate D2E/DX2                !
 ! A6    A(4,1,5)              109.4707         estimate D2E/DX2                !
 ! D1    D(2,1,4,3)            120.0004         estimate D2E/DX2                !
 ! D2    D(2,1,5,3)           -120.0007         estimate D2E/DX2                !
 ! D3    D(2,1,5,4)            119.999          estimate D2E/DX2                !
 ! D4    D(3,1,5,4)           -120.0003         estimate D2E/DX2                !
 --------------------------------------------------------------------------------
 Trust Radius=3.00D-01 FncErr=1.00D-07 GrdErr=1.00D-06 EigMax=2.50D+02 EigMin=1.00D-04
 Number of steps in this run=     24 maximum allowed number of steps=    100.
 GradGradGradGradGradGradGradGradGradGradGradGradGradGradGradGradGradGrad

                          Input orientation:                          
 ---------------------------------------------------------------------
 Center     Atomic      Atomic             Coordinates (Angstroms)
 Number     Number       Type             X           Y           Z
 ---------------------------------------------------------------------
      1          6           0        1.024390   -0.096800    0.005830
      2          1           0        2.133790   -0.096810    0.005820
      3          1           0        0.654600    0.470760    0.884390
      4          1           0        0.654590   -1.141450    0.058070
      5          1           0        0.654590    0.380270   -0.924980
 ---------------------------------------------------------------------
                    Distance matrix (angstroms):
                    1          2          3          4          5
     1  C    0.000000
     2  H    1.109400   0.000000
     3  H    1.109386   1.811636   0.000000
     4  H    1.109403   1.811639   1.811636   0.000000
     5  H    1.109394   1.811636   1.811631   1.811634   0.000000
 Stoichiometry    CH4
 Framework group  TD[O(C),4C3(H)]
 Deg. of freedom     1
 Full point group                 TD      NOp  24
 Largest Abelian subgroup         D2      NOp   4
 Largest concise Abelian subgroup D2      NOp   4
                         Standard orientation:                         
 ---------------------------------------------------------------------
 Center     Atomic      Atomic             Coordinates (Angstroms)
 Number     Number       Type             X           Y           Z
 ---------------------------------------------------------------------
      1          6           0        0.000000   -0.000000   -0.000000
      2          1           0       -0.640512    0.640512    0.640512
      3          1           0        0.640512   -0.640512    0.640512
      4          1           0        0.640512    0.640512   -0.640512
      5          1           0       -0.640512   -0.640512   -0.640512
 ---------------------------------------------------------------------
 Rotational constants (GHZ):         152.7874858         152.7874858         152.7874858
 Standard basis: def2SVPP (5D, 7F)
 There are     8 symmetry adapted cartesian basis functions of A   symmetry.
 There are     5 symmetry adapted cartesian basis functions of B1  symmetry.
 There are     5 symmetry adapted cartesian basis functions of B2  symmetry.
 There are     5 symmetry adapted cartesian basis functions of B3  symmetry.
 There are     7 symmetry adapted basis functions of A   symmetry.
 There are     5 symmetry adapted basis functions of B1  symmetry.
 There are     5 symmetry adapted basis functions of B2  symmetry.
 There are     5 symmetry adapted basis functions of B3  symmetry.
    22 basis functions,    41 primitive gaussians,    23 cartesian basis functions
     5 alpha electrons        5 beta electrons
       nuclear repulsion energy        13.2004574466 Hartrees.
 NAtoms=    5 NActive=    5 NUniq=    2 SFac= 4.00D+00 NAtFMM=   60 NAOKFM=F Big=F
 Integral buffers will be    131072 words long.
 Raffenetti 2 integral format.
 Two-electron integral symmetry is turned on.
 Nuclear repulsion after empirical dispersion term =       13.1985454843 Hartrees.
 One-electron integrals computed using PRISM.
 PrsmSu:  requested number of processors reduced to:  12 ShMem   1 Linda.
  24 Symmetry operations used in ECPInt.
 ECPInt:  NShTT=     105 NPrTT=     431 LenC2=     106 LenP2D=     417.
 LDataN:  DoStor=T MaxTD1= 4 Len=   56
 NBasis=    22 RedAO= T EigKep=  1.51D-02  NBF=     7     5     5     5
 NBsUse=    22 1.00D-06 EigRej= -1.00D+00 NBFU=     7     5     5     5
 ExpMin= 1.22D-01 ExpMax= 1.24D+03 ExpMxC= 1.86D+02 IAcc=3 IRadAn=         5 AccDes= 0.00D+00
 Harris functional with IExCor=  402 and IRadAn=       5 diagonalized for initial guess.
 HarFok:  IExCor=  402 AccDes= 0.00D+00 IRadAn=         5 IDoV= 1 UseB2=F ITyADJ=14
 ICtDFT=  3500011 ScaDFX=  1.000000  1.000000  1.000000  1.000000
 FoFCou: FMM=F IPFlag=           0 FMFlag=      100000 FMFlg1=           0
         NFxFlg=           0 DoJE=T BraDBF=F KetDBF=T FulRan=T
         wScrn=  0.000000 ICntrl=       500 IOpCl=  0 I1Cent=   200000004 NGrid=           0
         NMat0=    1 NMatS0=      1 NMatT0=    0 NMatD0=    1 NMtDS0=    0 NMtDT0=    0
 Petite list used in FoFCou.
 Initial guess orbital symmetries:
       Occupied  (A1) (A1) (T2) (T2) (T2)
       Virtual   (A1) (T2) (T2) (T2) (T2) (T2) (T2) (A1) (T2) (T2)
                 (T2) (A1) (E) (E) (T2) (T2) (T2)
 The electronic state of the initial guess is 1-A1.
 Keep R1 ints in memory in symmetry-blocked form, NReq=13846442.
 Requested convergence on RMS density matrix=1.00D-08 within 128 cycles.
 Requested convergence on MAX density matrix=1.00D-06.
 Requested convergence on             energy=1.00D-06.
 No special actions if energy rises.
 Integral accuracy reduced to 1.0D-05 until final iterations.
 Initial convergence to 1.0D-05 achieved.  Increase integral accuracy.
 SCF Done:  E(RB3LYP) =  -40.4796565996     A.U. after    8 cycles
            NFock=  8  Conv=0.25D-08     -V/T= 2.0143

 **********************************************************************

            Population analysis using the SCF Density.

 **********************************************************************

 Orbital symmetries:
       Occupied  (A1) (A1) (T2) (T2) (T2)
       Virtual   (A1) (T2) (T2) (T2) (T2) (T2) (T2) (A1) (T2) (T2)
                 (T2) (A1) (E) (E) (T2) (T2) (T2)
 The electronic state is 1-A1.
 Alpha  occ. eigenvalues --  -10.16944  -0.68113  -0.39038  -0.39038  -0.39038
 Alpha virt. eigenvalues --    0.06946   0.13999   0.13999   0.13999   0.42096
 Alpha virt. eigenvalues --    0.42096   0.42096   0.67052   0.70451   0.70451
 Alpha virt. eigenvalues --    0.70451   0.76974   1.65269   1.65269   2.12128
 Alpha virt. eigenvalues --    2.12128   2.12128
          Condensed to atoms (all electrons):
               1          2          3          4          5
     1  C    4.880844   0.392453   0.392453   0.392453   0.392453
     2  H    0.392453   0.559252  -0.021456  -0.021456  -0.021456
     3  H    0.392453  -0.021456   0.559252  -0.021456  -0.021456
     4  H    0.392453  -0.021456  -0.021456   0.559252  -0.021456
     5  H    0.392453  -0.021456  -0.021456  -0.021456   0.559252
 Mulliken charges:
               1
     1  C   -0.450655
     2  H    0.112664
     3  H    0.112664
     4  H    0.112664
     5  H    0.112664
 Sum of Mulliken charges =   0.00000
 Mulliken charges with hydrogens summed into heavy atoms:
               1
     1  C    0.000000
 Electronic spatial extent (au):  <R**2>=             36.2842
 Charge=              0.0000 electrons
 Dipole moment (field-independent basis, Debye):
    X=             -0.0000    Y=              0.0000    Z=              0.0000  Tot=              0.0000
 Quadrupole moment (field-independent basis, Debye-Ang):
   XX=             -8.3856   YY=             -8.3856   ZZ=             -8.3856
   XY=             -0.0000   XZ=             -0.0000   YZ=              0.0000
 Traceless Quadrupole moment (field-independent basis, Debye-Ang):
   XX=             -0.0000   YY=              0.0000   ZZ=              0.0000
   XY=             -0.0000   XZ=             -0.0000   YZ=              0.0000
 Octapole moment (field-independent basis, Debye-Ang**2):
  XXX=             -0.0000  YYY=             -0.0000  ZZZ=              0.0000  XYY=             -0.0000
  XXY=             -0.0000  XXZ=              0.0000  XZZ=             -0.0000  YZZ=             -0.0000
  YYZ=              0.0000  XYZ=             -0.6034
 Hexadecapole moment (field-independent basis, Debye-Ang**3):
 XXXX=            -16.3365 YYYY=            -16.3365 ZZZZ=            -16.3365 XXXY=              0.0000
 XXXZ=             -0.0000 YYYX=              0.0000 YYYZ=              0.0000 ZZZX=             -0.0000
 ZZZY=              0.0000 XXYY=             -5.0178 XXZZ=             -5.0178 YYZZ=             -5.0178
 XXYZ=              0.0000 YYXZ=             -0.0000 ZZXY=              0.0000
 N-N= 1.319854548434D+01 E-N=-1.192211565622D+02  KE= 3.990740226382D+01
 Symmetry A    KE= 3.423868930625D+01
 Symmetry B1   KE= 1.889570985857D+00
 Symmetry B2   KE= 1.889570985857D+00
 Symmetry B3   KE= 1.889570985857D+00
 PrsmSu:  requested number of processors reduced to:  12 ShMem   1 Linda.
  24 Symmetry operations used in ECPInt.
 ECPInt:  NShTT=     105 NPrTT=     431 LenC2=     106 LenP2D=     417.
 LDataN:  DoStor=T MaxTD1= 5 Len=  102
 Calling FoFJK, ICntrl=      2127 FMM=F ISym2X=1 I1Cent= 0 IOpClX= 0 NMat=1 NMatS=1 NMatT=0.
 ***** Axes restored to original set *****
 -------------------------------------------------------------------
 Center     Atomic                   Forces (Hartrees/Bohr)
 Number     Number              X              Y              Z
 -------------------------------------------------------------------
      1        6           0.000000000   -0.000000000   -0.000000000
      2        1          -0.003976901    0.000000118    0.000000033
      3        1           0.001325547   -0.002034609   -0.003149449
      4        1           0.001325743    0.003744739   -0.000187281
      5        1           0.001325611   -0.001710248    0.003336697
 -------------------------------------------------------------------
 Cartesian Forces:  Max     0.003976901 RMS     0.002053663

 GradGradGradGradGradGradGradGradGradGradGradGradGradGradGradGradGradGrad
 Berny optimization.
 FormGI is forming the generalized inverse of G from B-inverse, IUseBI=4.
 Internal  Forces:  Max     0.003976901 RMS     0.002125743
 Search for a local minimum.
 Step number   1 out of a maximum of   24
 All quantities printed in internal units (Hartrees-Bohrs-Radians)
 Mixed Optimization -- RFO/linear search
 Second derivative matrix not updated -- first step.
 The second derivative matrix:
                          R1        R2        R3        R4        A1
           R1           0.32664
           R2           0.00000   0.32664
           R3           0.00000   0.00000   0.32664
           R4           0.00000   0.00000   0.00000   0.32664
           A1           0.00000   0.00000   0.00000   0.00000   0.16000
           A2           0.00000   0.00000   0.00000   0.00000   0.00000
           A3           0.00000   0.00000   0.00000   0.00000   0.00000
           A4           0.00000   0.00000   0.00000   0.00000   0.00000
           A5           0.00000   0.00000   0.00000   0.00000   0.00000
           A6           0.00000   0.00000   0.00000   0.00000   0.00000
           D1           0.00000   0.00000   0.00000   0.00000   0.00000
           D2           0.00000   0.00000   0.00000   0.00000   0.00000
           D3           0.00000   0.00000   0.00000   0.00000   0.00000
           D4           0.00000   0.00000   0.00000   0.00000   0.00000
                          A2        A3        A4        A5        A6
           A2           0.16000
           A3           0.00000   0.16000
           A4           0.00000   0.00000   0.16000
           A5           0.00000   0.00000   0.00000   0.16000
           A6           0.00000   0.00000   0.00000   0.00000   0.16000
           D1           0.00000   0.00000   0.00000   0.00000   0.00000
           D2           0.00000   0.00000   0.00000   0.00000   0.00000
           D3           0.00000   0.00000   0.00000   0.00000   0.00000
           D4           0.00000   0.00000   0.00000   0.00000   0.00000
                          D1        D2        D3        D4
           D1           0.00230
           D2           0.00000   0.00230
           D3           0.00000   0.00000   0.00230
           D4           0.00000   0.00000   0.00000   0.00230
 ITU=  0
     Eigenvalues ---    0.05082   0.05715   0.08641   0.16000   0.16000
     Eigenvalues ---    0.32664   0.32664   0.32664   0.32664
 RFO step:  Lambda=-1.93564721D-04 EMin= 5.08230769D-02
 Linear search not attempted -- first point.
 Iteration  1 RMS(Cart)=  0.00650411 RMS(Int)=  0.00000000
 Iteration  2 RMS(Cart)=  0.00000000 RMS(Int)=  0.00000000
 ClnCor:  largest displacement from symmetrization is 3.35D-14 for atom     5.
 Variable       Old X    -DE/DX   Delta X   Delta X   Delta X     New X
                                 (Linear)    (Quad)   (Total)
    R1        2.09646  -0.00398   0.00000  -0.01217  -0.01217   2.08429
    R2        2.09646  -0.00398   0.00000  -0.01217  -0.01217   2.08429
    R3        2.09646  -0.00398   0.00000  -0.01217  -0.01217   2.08429
    R4        2.09646  -0.00398   0.00000  -0.01217  -0.01217   2.08429
    A1        1.91063   0.00000   0.00000   0.00000   0.00000   1.91063
    A2        1.91063  -0.00000   0.00000  -0.00000   0.00000   1.91063
    A3        1.91063   0.00000   0.00000   0.00000  -0.00000   1.91063
    A4        1.91063   0.00000   0.00000   0.00000  -0.00000   1.91063
    A5        1.91063  -0.00000   0.00000  -0.00000   0.00000   1.91063
    A6        1.91063   0.00000   0.00000   0.00000   0.00000   1.91063
    D1        2.09440   0.00000   0.00000   0.00000   0.00000   2.09440
    D2       -2.09440   0.00000   0.00000   0.00000   0.00000  -2.09440
    D3        2.09440   0.00000   0.00000   0.00000   0.00000   2.09440
    D4       -2.09440   0.00000   0.00000   0.00000   0.00000  -2.09440
         Item               Value     Threshold  Converged?
 Maximum Force            0.003977     0.000450     NO 
 RMS     Force            0.002126     0.000300     NO 
 Maximum Displacement     0.012168     0.001800     NO 
 RMS     Displacement     0.006504     0.001200     NO 
 Predicted change in Energy=-9.683971D-05
 GradGradGradGradGradGradGradGradGradGradGradGradGradGradGradGradGradGrad

                          Input orientation:                          
 ---------------------------------------------------------------------
 Center     Atomic      Atomic             Coordinates (Angstroms)
 Number     Number       Type             X           Y           Z
 ---------------------------------------------------------------------
      1          6           0        1.024391   -0.096803    0.005828
      2          1           0        2.127351   -0.096836    0.005819
      3          1           0        0.656762    0.467479    0.879301
      4          1           0        0.656707   -1.135375    0.057769
      5          1           0        0.656744    0.377520   -0.919577
 ---------------------------------------------------------------------
                    Distance matrix (angstroms):
                    1          2          3          4          5
     1  C    0.000000
     2  H    1.102960   0.000000
     3  H    1.102960   1.801126   0.000000
     4  H    1.102960   1.801126   1.801126   0.000000
     5  H    1.102960   1.801126   1.801126   1.801126   0.000000
 Stoichiometry    CH4
 Framework group  TD[O(C),4C3(H)]
 Deg. of freedom     1
 Full point group                 TD      NOp  24
 Largest Abelian subgroup         D2      NOp   4
 Largest concise Abelian subgroup D2      NOp   4
                         Standard orientation:                         
 ---------------------------------------------------------------------
 Center     Atomic      Atomic             Coordinates (Angstroms)
 Number     Number       Type             X           Y           Z
 ---------------------------------------------------------------------
      1          6           0        0.000000    0.000000    0.000000
      2          1           0        0.636794    0.636794    0.636794
      3          1           0       -0.636794   -0.636794    0.636794
      4          1           0        0.636794   -0.636794   -0.636794
      5          1           0       -0.636794    0.636794   -0.636794
 ---------------------------------------------------------------------
 Rotational constants (GHZ):         154.5766353         154.5766353         154.5766353
 Standard basis: def2SVPP (5D, 7F)
 There are     8 symmetry adapted cartesian basis functions of A   symmetry.
 There are     5 symmetry adapted cartesian basis functions of B1  symmetry.
 There are     5 symmetry adapted cartesian basis functions of B2  symmetry.
 There are     5 symmetry adapted cartesian basis functions of B3  symmetry.
 There are     7 symmetry adapted basis functions of A   symmetry.
 There are     5 symmetry adapted basis functions of B1  symmetry.
 There are     5 symmetry adapted basis functions of B2  symmetry.
 There are     5 symmetry adapted basis functions of B3  symmetry.
    22 basis functions,    41 primitive gaussians,    23 cartesian basis functions
     5 alpha electrons        5 beta electrons
       nuclear repulsion energy        13.2775215263 Hartrees.
 NAtoms=    5 NActive=    5 NUniq=    2 SFac= 4.00D+00 NAtFMM=   60 NAOKFM=F Big=F
 Integral buffers will be    131072 words long.
 Raffenetti 2 integral format.
 Two-electron integral symmetry is turned on.
 Nuclear repulsion after empirical dispersion term =       13.2756090909 Hartrees.
 One-electron integrals computed using PRISM.
 PrsmSu:  requested number of processors reduced to:  12 ShMem   1 Linda.
  24 Symmetry operations used in ECPInt.
 ECPInt:  NShTT=     105 NPrTT=     431 LenC2=     106 LenP2D=     417.
 LDataN:  DoStor=T MaxTD1= 4 Len=   56
 NBasis=    22 RedAO= T EigKep=  1.48D-02  NBF=     7     5     5     5
 NBsUse=    22 1.00D-06 EigRej= -1.00D+00 NBFU=     7     5     5     5
 Initial guess from the checkpoint file:  "/home/software/g16tmp/Gau-78873.chk"
 B after Tr=    -0.000000   -0.000000   -0.000000
         Rot=    0.707107   -0.000000    0.000000    0.707107 Ang=  90.00 deg.
 Initial guess orbital symmetries:
       Occupied  (A1) (A1) (T2) (T2) (T2)
       Virtual   (A1) (T2) (T2) (T2) (T2) (T2) (T2) (A1) (T2) (T2)
                 (T2) (A1) (E) (E) (T2) (T2) (T2)
 Keep R1 ints in memory in symmetry-blocked form, NReq=13846442.
 Requested convergence on RMS density matrix=1.00D-08 within 128 cycles.
 Requested convergence on MAX density matrix=1.00D-06.
 Requested convergence on             energy=1.00D-06.
 No special actions if energy rises.
 SCF Done:  E(RB3LYP) =  -40.4797504762     A.U. after    6 cycles
            NFock=  6  Conv=0.53D-09     -V/T= 2.0135
 PrsmSu:  requested number of processors reduced to:  12 ShMem   1 Linda.
  24 Symmetry operations used in ECPInt.
 ECPInt:  NShTT=     105 NPrTT=     431 LenC2=     106 LenP2D=     417.
 LDataN:  DoStor=T MaxTD1= 5 Len=  102
 Calling FoFJK, ICntrl=      2127 FMM=F ISym2X=1 I1Cent= 0 IOpClX= 0 NMat=1 NMatS=1 NMatT=0.
 ***** Axes restored to original set *****
 -------------------------------------------------------------------
 Center     Atomic                   Forces (Hartrees/Bohr)
 Number     Number              X              Y              Z
 -------------------------------------------------------------------
      1        6          -0.000000000    0.000000000   -0.000000000
      2        1           0.000143597   -0.000000004   -0.000000001
      3        1          -0.000047863    0.000073465    0.000113720
      4        1          -0.000047870   -0.000135214    0.000006762
      5        1          -0.000047865    0.000061753   -0.000120481
 -------------------------------------------------------------------
 Cartesian Forces:  Max     0.000143597 RMS     0.000074153

 GradGradGradGradGradGradGradGradGradGradGradGradGradGradGradGradGradGrad
 Berny optimization.
 Using GEDIIS/GDIIS optimizer.
 FormGI is forming the generalized inverse of G from B-inverse, IUseBI=4.
 Internal  Forces:  Max     0.000143597 RMS     0.000076756
 Search for a local minimum.
 Step number   2 out of a maximum of   24
 All quantities printed in internal units (Hartrees-Bohrs-Radians)
 Mixed Optimization -- En-DIIS/RFO-DIIS
 Update second derivatives using D2CorX and points    1    2
 DE= -9.39D-05 DEPred=-9.68D-05 R= 9.69D-01
 TightC=F SS=  1.41D+00  RLast= 2.43D-02 DXNew= 5.0454D-01 7.3008D-02
 Trust test= 9.69D-01 RLast= 2.43D-02 DXMaxT set to 3.00D-01
 The second derivative matrix:
                          R1        R2        R3        R4        A1
           R1           0.32964
           R2           0.00300   0.32964
           R3           0.00300   0.00300   0.32964
           R4           0.00300   0.00300   0.00300   0.32964
           A1          -0.00000  -0.00000  -0.00000  -0.00000   0.16000
           A2           0.00000   0.00000   0.00000   0.00000  -0.00000
           A3          -0.00000  -0.00000  -0.00000  -0.00000   0.00000
           A4          -0.00000  -0.00000  -0.00000  -0.00000   0.00000
           A5           0.00000   0.00000   0.00000   0.00000  -0.00000
           A6          -0.00000  -0.00000  -0.00000  -0.00000   0.00000
           D1          -0.00000  -0.00000  -0.00000  -0.00000   0.00000
           D2           0.00000   0.00000   0.00000   0.00000  -0.00000
           D3          -0.00000  -0.00000  -0.00000  -0.00000   0.00000
           D4          -0.00000  -0.00000  -0.00000  -0.00000   0.00000
                          A2        A3        A4        A5        A6
           A2           0.16000
           A3          -0.00000   0.16000
           A4          -0.00000   0.00000   0.16000
           A5           0.00000  -0.00000  -0.00000   0.16000
           A6          -0.00000   0.00000   0.00000  -0.00000   0.16000
           D1          -0.00000   0.00000   0.00000  -0.00000   0.00000
           D2           0.00000  -0.00000  -0.00000   0.00000  -0.00000
           D3          -0.00000   0.00000   0.00000  -0.00000   0.00000
           D4          -0.00000   0.00000   0.00000  -0.00000   0.00000
                          D1        D2        D3        D4
           D1           0.00230
           D2          -0.00000   0.00230
           D3           0.00000  -0.00000   0.00230
           D4           0.00000  -0.00000   0.00000   0.00230
 ITU=  1  0
 Use linear search instead of GDIIS.
     Eigenvalues ---    0.05082   0.05715   0.08641   0.16000   0.16000
     Eigenvalues ---    0.32664   0.32664   0.32664   0.33863
 RFO step:  Lambda= 0.00000000D+00 EMin= 5.08230769D-02
 Quartic linear search produced a step of -0.03426.
 Iteration  1 RMS(Cart)=  0.00022286 RMS(Int)=  0.00000000
 Iteration  2 RMS(Cart)=  0.00000000 RMS(Int)=  0.00000000
 ClnCor:  largest displacement from symmetrization is 1.19D-14 for atom     3.
 Variable       Old X    -DE/DX   Delta X   Delta X   Delta X     New X
                                 (Linear)    (Quad)   (Total)
    R1        2.08429   0.00014   0.00042   0.00000   0.00042   2.08471
    R2        2.08429   0.00014   0.00042  -0.00000   0.00042   2.08471
    R3        2.08429   0.00014   0.00042   0.00000   0.00042   2.08471
    R4        2.08429   0.00014   0.00042  -0.00000   0.00042   2.08471
    A1        1.91063  -0.00000  -0.00000  -0.00000  -0.00000   1.91063
    A2        1.91063  -0.00000   0.00000  -0.00000   0.00000   1.91063
    A3        1.91063   0.00000  -0.00000  -0.00000   0.00000   1.91063
    A4        1.91063   0.00000  -0.00000   0.00000   0.00000   1.91063
    A5        1.91063  -0.00000   0.00000  -0.00000   0.00000   1.91063
    A6        1.91063   0.00000  -0.00000   0.00000  -0.00000   1.91063
    D1        2.09440  -0.00000  -0.00000  -0.00000   0.00000   2.09440
    D2       -2.09440   0.00000   0.00000   0.00000   0.00000  -2.09440
    D3        2.09440  -0.00000   0.00000  -0.00000   0.00000   2.09440
    D4       -2.09440  -0.00000  -0.00000  -0.00000   0.00000  -2.09440
         Item               Value     Threshold  Converged?
 Maximum Force            0.000144     0.000450     YES
 RMS     Force            0.000077     0.000300     YES
 Maximum Displacement     0.000417     0.001800     YES
 RMS     Displacement     0.000223     0.001200     YES
 Predicted change in Energy=-1.217510D-07
 Optimization completed.
    -- Stationary point found.
                           ----------------------------
                           !   Optimized Parameters   !
                           ! (Angstroms and Degrees)  !
 --------------------------                            --------------------------
 ! Name  Definition              Value          Derivative Info.                !
 --------------------------------------------------------------------------------
 ! R1    R(1,2)                  1.103          -DE/DX =    0.0001              !
 ! R2    R(1,3)                  1.103          -DE/DX =    0.0001              !
 ! R3    R(1,4)                  1.103          -DE/DX =    0.0001              !
 ! R4    R(1,5)                  1.103          -DE/DX =    0.0001              !
 ! A1    A(2,1,3)              109.4712         -DE/DX =    0.0                 !
 ! A2    A(2,1,4)              109.4712         -DE/DX =    0.0                 !
 ! A3    A(2,1,5)              109.4712         -DE/DX =    0.0                 !
 ! A4    A(3,1,4)              109.4712         -DE/DX =    0.0                 !
 ! A5    A(3,1,5)              109.4712         -DE/DX =    0.0                 !
 ! A6    A(4,1,5)              109.4712         -DE/DX =    0.0                 !
 ! D1    D(2,1,4,3)            120.0            -DE/DX =    0.0                 !
 ! D2    D(2,1,5,3)           -120.0            -DE/DX =    0.0                 !
 ! D3    D(2,1,5,4)            120.0            -DE/DX =    0.0                 !
 ! D4    D(3,1,5,4)           -120.0            -DE/DX =    0.0                 !
 --------------------------------------------------------------------------------
 GradGradGradGradGradGradGradGradGradGradGradGradGradGradGradGradGradGrad

                          Input orientation:                          
 ---------------------------------------------------------------------
 Center     Atomic      Atomic             Coordinates (Angstroms)
 Number     Number       Type             X           Y           Z
 ---------------------------------------------------------------------
      1          6           0        1.024391   -0.096803    0.005828
      2          1           0        2.127351   -0.096836    0.005819
      3          1           0        0.656762    0.467479    0.879301
      4          1           0        0.656707   -1.135375    0.057769
      5          1           0        0.656744    0.377520   -0.919577
 ---------------------------------------------------------------------
                    Distance matrix (angstroms):
                    1          2          3          4          5
     1  C    0.000000
     2  H    1.102960   0.000000
     3  H    1.102960   1.801126   0.000000
     4  H    1.102960   1.801126   1.801126   0.000000
     5  H    1.102960   1.801126   1.801126   1.801126   0.000000
 Stoichiometry    CH4
 Framework group  TD[O(C),4C3(H)]
 Deg. of freedom     1
 Full point group                 TD      NOp  24
 Largest Abelian subgroup         D2      NOp   4
 Largest concise Abelian subgroup D2      NOp   4
                         Standard orientation:                         
 ---------------------------------------------------------------------
 Center     Atomic      Atomic             Coordinates (Angstroms)
 Number     Number       Type             X           Y           Z
 ---------------------------------------------------------------------
      1          6           0        0.000000    0.000000    0.000000
      2          1           0        0.636794    0.636794    0.636794
      3          1           0       -0.636794   -0.636794    0.636794
      4          1           0        0.636794   -0.636794   -0.636794
      5          1           0       -0.636794    0.636794   -0.636794
 ---------------------------------------------------------------------
 Rotational constants (GHZ):         154.5766353         154.5766353         154.5766353

 **********************************************************************

            Population analysis using the SCF Density.

 **********************************************************************

 Orbital symmetries:
       Occupied  (A1) (A1) (T2) (T2) (T2)
       Virtual   (A1) (T2) (T2) (T2) (T2) (T2) (T2) (A1) (T2) (T2)
                 (T2) (A1) (E) (E) (T2) (T2) (T2)
 The electronic state is 1-A1.
 Alpha  occ. eigenvalues --  -10.16684  -0.68303  -0.39145  -0.39145  -0.39145
 Alpha virt. eigenvalues --    0.07049   0.14147   0.14147   0.14147   0.42031
 Alpha virt. eigenvalues --    0.42031   0.42031   0.67528   0.70900   0.70900
 Alpha virt. eigenvalues --    0.70900   0.77498   1.65144   1.65144   2.12705
 Alpha virt. eigenvalues --    2.12705   2.12705
          Condensed to atoms (all electrons):
               1          2          3          4          5
     1  C    4.870909   0.393780   0.393780   0.393780   0.393780
     2  H    0.393780   0.558877  -0.021388  -0.021388  -0.021388
     3  H    0.393780  -0.021388   0.558877  -0.021388  -0.021388
     4  H    0.393780  -0.021388  -0.021388   0.558877  -0.021388
     5  H    0.393780  -0.021388  -0.021388  -0.021388   0.558877
 Mulliken charges:
               1
     1  C   -0.446029
     2  H    0.111507
     3  H    0.111507
     4  H    0.111507
     5  H    0.111507
 Sum of Mulliken charges =  -0.00000
 Mulliken charges with hydrogens summed into heavy atoms:
               1
     1  C   -0.000000
 Electronic spatial extent (au):  <R**2>=             36.0408
 Charge=              0.0000 electrons
 Dipole moment (field-independent basis, Debye):
    X=              0.0000    Y=              0.0000    Z=              0.0000  Tot=              0.0000
 Quadrupole moment (field-independent basis, Debye-Ang):
   XX=             -8.3678   YY=             -8.3678   ZZ=             -8.3678
   XY=             -0.0000   XZ=             -0.0000   YZ=             -0.0000
 Traceless Quadrupole moment (field-independent basis, Debye-Ang):
   XX=             -0.0000   YY=              0.0000   ZZ=              0.0000
   XY=             -0.0000   XZ=             -0.0000   YZ=             -0.0000
 Octapole moment (field-independent basis, Debye-Ang**2):
  XXX=              0.0000  YYY=              0.0000  ZZZ=              0.0000  XYY=             -0.0000
  XXY=              0.0000  XXZ=             -0.0000  XZZ=             -0.0000  YZZ=             -0.0000
  YYZ=             -0.0000  XYZ=              0.5866
 Hexadecapole moment (field-independent basis, Debye-Ang**3):
 XXXX=            -16.1756 YYYY=            -16.1756 ZZZZ=            -16.1756 XXXY=             -0.0000
 XXXZ=             -0.0000 YYYX=             -0.0000 YYYZ=             -0.0000 ZZZX=             -0.0000
 ZZZY=             -0.0000 XXYY=             -4.9755 XXZZ=             -4.9755 YYZZ=             -4.9755
 XXYZ=             -0.0000 YYXZ=              0.0000 ZZXY=             -0.0000
 N-N= 1.327560909091D+01 E-N=-1.193970765203D+02  KE= 3.993894616923D+01
 Symmetry A    KE= 3.424400687968D+01
 Symmetry B1   KE= 1.898313096515D+00
 Symmetry B2   KE= 1.898313096515D+00
 Symmetry B3   KE= 1.898313096515D+00
 Unable to Open any file for archive entry.
 1\1\GINC-NODE02\FOpt\RB3LYP\def2SVPP\C1H4\XUHJ\19-Dec-2023\0\\#N opt f
 req B3LYP/def2SVPP symm=veryloose em=gd3bj scale=0.961 press=0.987\\C_
 1\\0,1\C,1.024391,-0.096803,0.005828\H,2.1273509351,-0.0968356813,0.00
 58187934\H,0.6567616989,0.4674786191,0.87930128\H,0.6567073481,-1.1353
 74861,0.0577687465\H,0.6567440179,0.3775199232,-0.9195768199\\Version=
 ES64L-G16RevC.01\State=1-A1\HF=-40.4797505\RMSD=5.285e-10\RMSF=7.415e-
 05\Dipole=0.,0.,0.\Quadrupole=0.,0.,0.,0.,0.,0.\PG=TD [O(C1),4C3(H1)]\
 \@
 The archive entry for this job was punched.


 Children are likely to live up to what you believe of them.
 -- Lady Bird Johnson
 Job cpu time:       0 days  0 hours  0 minutes 36.5 seconds.
 Elapsed time:       0 days  0 hours  0 minutes  3.2 seconds.
 File lengths (MBytes):  RWF=     17 Int=      0 D2E=      0 Chk=      2 Scr=      2
 Normal termination of Gaussian 16 at Tue Dec 19 12:52:50 2023.
 Link1:  Proceeding to internal job step number  2.
 --------------------------------------------------------------------
 #N Geom=AllCheck Guess=TCheck SCRF=Check GenChk RB3LYP/def2SVPP Freq
 --------------------------------------------------------------------
 1/10=4,29=7,30=1,38=1,40=1,113=-987000,114=961000/1,3;
 2/12=2,17=2,18=2,40=1/2;
 3/5=43,7=202,11=2,14=-4,25=1,30=1,70=2,71=2,74=-5,116=1,124=41,140=1/1,2,3;
 4/5=101/1;
 5/5=2,38=6,98=1/2;
 8/6=4,10=90,11=11/1;
 11/6=1,8=1,9=11,15=111,16=1/1,2,10;
 10/6=1/2;
 6/7=2,8=2,9=2,10=2,28=1/1;
 7/8=1,10=1,25=1/1,2,3,16;
 1/10=4,30=1/3;
 99//99;
 Structure from the checkpoint file:  "/home/software/g16tmp/Gau-78873.chk"
 ---
 C_1
 ---
 Charge =  0 Multiplicity = 1
 Redundant internal coordinates found in file.  (old form).
 C,0,1.024391,-0.096803,0.005828
 H,0,2.1273509351,-0.0968356813,0.0058187934
 H,0,0.6567616989,0.4674786191,0.87930128
 H,0,0.6567073481,-1.135374861,0.0577687465
 H,0,0.6567440179,0.3775199232,-0.9195768199
 Recover connectivity data from disk.

 GradGradGradGradGradGradGradGradGradGradGradGradGradGradGradGradGradGrad
 Berny optimization.
 Initialization pass.
                           ----------------------------
                           !    Initial Parameters    !
                           ! (Angstroms and Degrees)  !
 --------------------------                            --------------------------
 ! Name  Definition              Value          Derivative Info.                !
 --------------------------------------------------------------------------------
 ! R1    R(1,2)                  1.103          calculate D2E/DX2 analytically  !
 ! R2    R(1,3)                  1.103          calculate D2E/DX2 analytically  !
 ! R3    R(1,4)                  1.103          calculate D2E/DX2 analytically  !
 ! R4    R(1,5)                  1.103          calculate D2E/DX2 analytically  !
 ! A1    A(2,1,3)              109.4712         calculate D2E/DX2 analytically  !
 ! A2    A(2,1,4)              109.4712         calculate D2E/DX2 analytically  !
 ! A3    A(2,1,5)              109.4712         calculate D2E/DX2 analytically  !
 ! A4    A(3,1,4)              109.4712         calculate D2E/DX2 analytically  !
 ! A5    A(3,1,5)              109.4712         calculate D2E/DX2 analytically  !
 ! A6    A(4,1,5)              109.4712         calculate D2E/DX2 analytically  !
 ! D1    D(2,1,4,3)            120.0            calculate D2E/DX2 analytically  !
 ! D2    D(2,1,5,3)           -120.0            calculate D2E/DX2 analytically  !
 ! D3    D(2,1,5,4)            120.0            calculate D2E/DX2 analytically  !
 ! D4    D(3,1,5,4)           -120.0            calculate D2E/DX2 analytically  !
 --------------------------------------------------------------------------------
 Trust Radius=3.00D-01 FncErr=1.00D-07 GrdErr=1.00D-07 EigMax=2.50D+02 EigMin=1.00D-04
 Number of steps in this run=      2 maximum allowed number of steps=      2.
 GradGradGradGradGradGradGradGradGradGradGradGradGradGradGradGradGradGrad

                          Input orientation:                          
 ---------------------------------------------------------------------
 Center     Atomic      Atomic             Coordinates (Angstroms)
 Number     Number       Type             X           Y           Z
 ---------------------------------------------------------------------
      1          6           0        1.024391   -0.096803    0.005828
      2          1           0        2.127351   -0.096836    0.005819
      3          1           0        0.656762    0.467479    0.879301
      4          1           0        0.656707   -1.135375    0.057769
      5          1           0        0.656744    0.377520   -0.919577
 ---------------------------------------------------------------------
                    Distance matrix (angstroms):
                    1          2          3          4          5
     1  C    0.000000
     2  H    1.102960   0.000000
     3  H    1.102960   1.801126   0.000000
     4  H    1.102960   1.801126   1.801126   0.000000
     5  H    1.102960   1.801126   1.801126   1.801126   0.000000
 Stoichiometry    CH4
 Framework group  TD[O(C),4C3(H)]
 Deg. of freedom     1
 Full point group                 TD      NOp  24
 Largest Abelian subgroup         D2      NOp   4
 Largest concise Abelian subgroup D2      NOp   4
                         Standard orientation:                         
 ---------------------------------------------------------------------
 Center     Atomic      Atomic             Coordinates (Angstroms)
 Number     Number       Type             X           Y           Z
 ---------------------------------------------------------------------
      1          6           0        0.000000    0.000000    0.000000
      2          1           0        0.636794    0.636794    0.636794
      3          1           0       -0.636794   -0.636794    0.636794
      4          1           0        0.636794   -0.636794   -0.636794
      5          1           0       -0.636794    0.636794   -0.636794
 ---------------------------------------------------------------------
 Rotational constants (GHZ):         154.5766353         154.5766353         154.5766353
 Standard basis: def2SVPP (5D, 7F)
 There are     8 symmetry adapted cartesian basis functions of A   symmetry.
 There are     5 symmetry adapted cartesian basis functions of B1  symmetry.
 There are     5 symmetry adapted cartesian basis functions of B2  symmetry.
 There are     5 symmetry adapted cartesian basis functions of B3  symmetry.
 There are     7 symmetry adapted basis functions of A   symmetry.
 There are     5 symmetry adapted basis functions of B1  symmetry.
 There are     5 symmetry adapted basis functions of B2  symmetry.
 There are     5 symmetry adapted basis functions of B3  symmetry.
    22 basis functions,    41 primitive gaussians,    23 cartesian basis functions
     5 alpha electrons        5 beta electrons
       nuclear repulsion energy        13.2775215263 Hartrees.
 NAtoms=    5 NActive=    5 NUniq=    2 SFac= 4.00D+00 NAtFMM=   60 NAOKFM=F Big=F
 Integral buffers will be    131072 words long.
 Raffenetti 2 integral format.
 Two-electron integral symmetry is turned on.
 Nuclear repulsion after empirical dispersion term =       13.2756090909 Hartrees.
 One-electron integrals computed using PRISM.
 PrsmSu:  requested number of processors reduced to:  12 ShMem   1 Linda.
  24 Symmetry operations used in ECPInt.
 ECPInt:  NShTT=     105 NPrTT=     431 LenC2=     106 LenP2D=     417.
 LDataN:  DoStor=T MaxTD1= 4 Len=   56
 NBasis=    22 RedAO= T EigKep=  1.48D-02  NBF=     7     5     5     5
 NBsUse=    22 1.00D-06 EigRej= -1.00D+00 NBFU=     7     5     5     5
 Initial guess from the checkpoint file:  "/home/software/g16tmp/Gau-78873.chk"
 B after Tr=     0.000000    0.000000    0.000000
         Rot=    1.000000   -0.000000   -0.000000   -0.000000 Ang=   0.00 deg.
 Initial guess orbital symmetries:
       Occupied  (A1) (A1) (T2) (T2) (T2)
       Virtual   (A1) (T2) (T2) (T2) (T2) (T2) (T2) (A1) (T2) (T2)
                 (T2) (A1) (E) (E) (T2) (T2) (T2)
 Keep R1 ints in memory in symmetry-blocked form, NReq=13846442.
 Requested convergence on RMS density matrix=1.00D-08 within 128 cycles.
 Requested convergence on MAX density matrix=1.00D-06.
 Requested convergence on             energy=1.00D-06.
 No special actions if energy rises.
 Skip diagonalization as Alpha Fock matrix is already diagonal.
 SCF Done:  E(RB3LYP) =  -40.4797504762     A.U. after    1 cycles
            NFock=  1  Conv=0.32D-17     -V/T= 2.0135
 DoSCS=F DFT=T ScalE2(SS,OS)=  1.000000  1.000000
 Range of M.O.s used for correlation:     1    22
 NBasis=    22 NAE=     5 NBE=     5 NFC=     0 NFV=     0
 NROrb=     22 NOA=     5 NOB=     5 NVA=    17 NVB=    17
 PrsmSu:  requested number of processors reduced to:  12 ShMem   1 Linda.
  24 Symmetry operations used in ECPInt.
 ECPInt:  NShTT=     105 NPrTT=     431 LenC2=     106 LenP2D=     417.
 LDataN:  DoStor=T MaxTD1= 5 Len=  102
 Symmetrizing basis deriv contribution to polar:
 IMax=3 JMax=2 DiffMx= 0.00D+00
 G2DrvN: will do     6 centers at a time, making    1 passes.
 Calling FoFCou, ICntrl=  3107 FMM=F I1Cent=   0 AccDes= 0.00D+00.
 End of G2Drv F.D. properties file   721 does not exist.
 End of G2Drv F.D. properties file   722 does not exist.
 End of G2Drv F.D. properties file   788 does not exist.
          IDoAtm=11111
          Differentiating once with respect to electric field.
                with respect to dipole field.
          Differentiating once with respect to nuclear coordinates.
 Keep R1 ints in memory in symmetry-blocked form, NReq=13794952.
          There are     9 degrees of freedom in the 1st order CPHF.  IDoFFX=4 NUNeed=     9.
      9 vectors produced by pass  0 Test12= 9.44D-16 1.11D-08 XBig12= 6.17D+00 1.32D+00.
 AX will form     9 AO Fock derivatives at one time.
      9 vectors produced by pass  1 Test12= 9.44D-16 1.11D-08 XBig12= 1.09D-01 1.42D-01.
      9 vectors produced by pass  2 Test12= 9.44D-16 1.11D-08 XBig12= 2.05D-04 4.90D-03.
      9 vectors produced by pass  3 Test12= 9.44D-16 1.11D-08 XBig12= 4.78D-07 1.89D-04.
      9 vectors produced by pass  4 Test12= 9.44D-16 1.11D-08 XBig12= 3.50D-10 6.39D-06.
      3 vectors produced by pass  5 Test12= 9.44D-16 1.11D-08 XBig12= 1.25D-13 1.47D-07.
 InvSVY:  IOpt=1 It=  1 EMax= 8.88D-16
 Solved reduced A of dimension    48 with     9 vectors.
 Isotropic polarizability for W=    0.000000       12.38 Bohr**3.
 End of Minotr F.D. properties file   721 does not exist.
 End of Minotr F.D. properties file   722 does not exist.
 End of Minotr F.D. properties file   788 does not exist.

 **********************************************************************

            Population analysis using the SCF Density.

 **********************************************************************

 Orbital symmetries:
       Occupied  (A1) (A1) (T2) (T2) (T2)
       Virtual   (A1) (T2) (T2) (T2) (T2) (T2) (T2) (A1) (T2) (T2)
                 (T2) (A1) (E) (E) (T2) (T2) (T2)
 The electronic state is 1-A1.
 Alpha  occ. eigenvalues --  -10.16684  -0.68303  -0.39145  -0.39145  -0.39145
 Alpha virt. eigenvalues --    0.07049   0.14147   0.14147   0.14147   0.42031
 Alpha virt. eigenvalues --    0.42031   0.42031   0.67528   0.70900   0.70900
 Alpha virt. eigenvalues --    0.70900   0.77498   1.65144   1.65144   2.12705
 Alpha virt. eigenvalues --    2.12705   2.12705
          Condensed to atoms (all electrons):
               1          2          3          4          5
     1  C    4.870909   0.393780   0.393780   0.393780   0.393780
     2  H    0.393780   0.558877  -0.021388  -0.021388  -0.021388
     3  H    0.393780  -0.021388   0.558877  -0.021388  -0.021388
     4  H    0.393780  -0.021388  -0.021388   0.558877  -0.021388
     5  H    0.393780  -0.021388  -0.021388  -0.021388   0.558877
 Mulliken charges:
               1
     1  C   -0.446029
     2  H    0.111507
     3  H    0.111507
     4  H    0.111507
     5  H    0.111507
 Sum of Mulliken charges =   0.00000
 Mulliken charges with hydrogens summed into heavy atoms:
               1
     1  C    0.000000
 APT charges:
               1
     1  C   -0.039109
     2  H    0.009777
     3  H    0.009777
     4  H    0.009777
     5  H    0.009777
 Sum of APT charges =   0.00000
 APT charges with hydrogens summed into heavy atoms:
               1
     1  C    0.000000
 Electronic spatial extent (au):  <R**2>=             36.0408
 Charge=              0.0000 electrons
 Dipole moment (field-independent basis, Debye):
    X=              0.0000    Y=              0.0000    Z=              0.0000  Tot=              0.0000
 Quadrupole moment (field-independent basis, Debye-Ang):
   XX=             -8.3678   YY=             -8.3678   ZZ=             -8.3678
   XY=              0.0000   XZ=              0.0000   YZ=              0.0000
 Traceless Quadrupole moment (field-independent basis, Debye-Ang):
   XX=             -0.0000   YY=              0.0000   ZZ=              0.0000
   XY=              0.0000   XZ=              0.0000   YZ=              0.0000
 Octapole moment (field-independent basis, Debye-Ang**2):
  XXX=              0.0000  YYY=              0.0000  ZZZ=             -0.0000  XYY=              0.0000
  XXY=              0.0000  XXZ=              0.0000  XZZ=             -0.0000  YZZ=              0.0000
  YYZ=              0.0000  XYZ=              0.5866
 Hexadecapole moment (field-independent basis, Debye-Ang**3):
 XXXX=            -16.1756 YYYY=            -16.1756 ZZZZ=            -16.1756 XXXY=             -0.0000
 XXXZ=             -0.0000 YYYX=             -0.0000 YYYZ=              0.0000 ZZZX=             -0.0000
 ZZZY=              0.0000 XXYY=             -4.9755 XXZZ=             -4.9755 YYZZ=             -4.9755
 XXYZ=              0.0000 YYXZ=              0.0000 ZZXY=              0.0000
 N-N= 1.327560909091D+01 E-N=-1.193970765203D+02  KE= 3.993894616923D+01
 Symmetry A    KE= 3.424400687968D+01
 Symmetry B1   KE= 1.898313096515D+00
 Symmetry B2   KE= 1.898313096515D+00
 Symmetry B3   KE= 1.898313096515D+00
  Exact polarizability:      12.377      -0.000      12.377      -0.000      -0.000      12.377
 Approx polarizability:      14.451       0.000      14.451       0.000      -0.000      14.451
 PrsmSu:  requested number of processors reduced to:  12 ShMem   1 Linda.
 PrsmSu:  requested number of processors reduced to:  12 ShMem   1 Linda.
  24 Symmetry operations used in ECPInt.
 ECPInt:  NShTT=     105 NPrTT=     431 LenC2=     106 LenP2D=     417.
 LDataN:  DoStor=T MaxTD1= 6 Len=  172
 Calling FoFJK, ICntrl=    100127 FMM=F ISym2X=1 I1Cent= 0 IOpClX= 0 NMat=1 NMatS=1 NMatT=0.
 CoulSu:  requested number of processors reduced to:  12 ShMem   1 Linda.
 Full mass-weighted force constant matrix:
 Low frequencies ---  -41.2642  -41.2642  -41.2642   -0.0011   -0.0009    0.0012
 Low frequencies --- 1328.2905 1328.2905 1328.2905
 Diagonal vibrational polarizability:
        0.3190249       0.3190249       0.3190249
 Harmonic frequencies (cm**-1), IR intensities (KM/Mole), Raman scattering
 activities (A**4/AMU), depolarization ratios for plane and unpolarized
 incident light, reduced masses (AMU), force constants (mDyne/A),
 and normal coordinates:
                      1                      2                      3
                     T2                     T2                     T2
 Frequencies --   1328.2905              1328.2905              1328.2905
 Red. masses --      1.1756                 1.1756                 1.1756
 Frc consts  --      1.2221                 1.2221                 1.2221
 IR Inten    --     17.7011                17.7011                17.7011
  Atom  AN      X      Y      Z        X      Y      Z        X      Y      Z
     1   6    -0.07  -0.07  -0.07    -0.10   0.04   0.06     0.02  -0.09   0.08
     2   1    -0.06  -0.06  -0.06     0.49  -0.18  -0.31    -0.08   0.46  -0.38
     3   1     0.21   0.21   0.49     0.24  -0.42  -0.07    -0.38   0.16  -0.08
     4   1     0.48   0.21   0.21     0.11   0.21   0.07    -0.01   0.40  -0.44
     5   1     0.21   0.48   0.22     0.35  -0.04  -0.45     0.28   0.10  -0.02
                      4                      5                      6
                      E                      E                     A1
 Frequencies --   1537.6740              1537.6740              3005.9848
 Red. masses --      1.0078                 1.0078                 1.0078
 Frc consts  --      1.4040                 1.4040                 5.3655
 IR Inten    --      0.0000                 0.0000                 0.0000
  Atom  AN      X      Y      Z        X      Y      Z        X      Y      Z
     1   6    -0.00  -0.00   0.00    -0.00   0.00  -0.00     0.00   0.00   0.00
     2   1    -0.35  -0.00   0.35    -0.21   0.41  -0.20     0.29   0.29   0.29
     3   1     0.35   0.00   0.35     0.21  -0.41  -0.20    -0.29  -0.29   0.29
     4   1    -0.35   0.00  -0.35    -0.21  -0.41   0.20     0.29  -0.29  -0.29
     5   1     0.35  -0.00  -0.35     0.21   0.41   0.20    -0.29   0.29  -0.29
                      7                      8                      9
                     T2                     T2                     T2
 Frequencies --   3134.1675              3134.1675              3134.1675
 Red. masses --      1.1046                 1.1046                 1.1046
 Frc consts  --      6.3929                 6.3929                 6.3929
 IR Inten    --     17.8986                17.8986                17.8986
  Atom  AN      X      Y      Z        X      Y      Z        X      Y      Z
     1   6    -0.05  -0.01   0.08    -0.06   0.07  -0.02    -0.06  -0.06  -0.04
     2   1    -0.07  -0.07  -0.06     0.01   0.03   0.02     0.49   0.49   0.49
     3   1     0.42   0.43  -0.42    -0.13  -0.11   0.12     0.23   0.23  -0.24
     4   1     0.36  -0.36  -0.35     0.32  -0.32  -0.33    -0.14   0.13   0.13
     5   1    -0.14   0.14  -0.13     0.46  -0.46   0.46     0.12  -0.14   0.13

 -------------------
 - Thermochemistry -
 -------------------
 Temperature   298.150 Kelvin.  Pressure   0.98700 Atm.
 Thermochemistry will use frequencies scaled by 0.9610.
 Atom     1 has atomic number  6 and mass  12.00000
 Atom     2 has atomic number  1 and mass   1.00783
 Atom     3 has atomic number  1 and mass   1.00783
 Atom     4 has atomic number  1 and mass   1.00783
 Atom     5 has atomic number  1 and mass   1.00783
 Molecular mass:    16.03130 amu.
 Principal axes and moments of inertia in atomic units:
                           1         2         3
     Eigenvalues --    11.67538  11.67538  11.67538
           X           -0.10731   0.81054  -0.57578
           Y            0.98966   0.14250   0.01617
           Z           -0.09515   0.56809   0.81745
 This molecule is a spherical top.
 Rotational symmetry number 12.
 Rotational temperatures (Kelvin)      7.41851     7.41851     7.41851
 Rotational constants (GHZ):         154.57664   154.57664   154.57664
 Zero-point vibrational energy     111907.2 (Joules/Mol)
                                   26.74647 (Kcal/Mol)
 Vibrational temperatures:   1836.58  1836.58  1836.58  2126.09  2126.09
          (Kelvin)           4156.27  4333.50  4333.50  4333.50
 
 Zero-point correction=                           0.042623 (Hartree/Particle)
 Thermal correction to Energy=                    0.045504
 Thermal correction to Enthalpy=                  0.046448
 Thermal correction to Gibbs Free Energy=         0.025260
 Sum of electronic and zero-point Energies=            -40.437127
 Sum of electronic and thermal Energies=               -40.434247
 Sum of electronic and thermal Enthalpies=             -40.433303
 Sum of electronic and thermal Free Energies=          -40.454491
 
                     E (Thermal)             CV                S
                      KCal/Mol        Cal/Mol-Kelvin    Cal/Mol-Kelvin
 Total                   28.554              6.604             44.594
 Electronic               0.000              0.000              0.000
 Translational            0.889              2.981             34.287
 Rotational               0.889              2.981             10.190
 Vibrational             26.776              0.643              0.116
                       Q            Log10(Q)             Ln(Q)
 Total Bot       0.240610D-11        -11.618687        -26.753015
 Total V=0       0.969644D+08          7.986612         18.389854
 Vib (Bot)       0.250122D-19        -19.601848        -45.134922
 Vib (V=0)       0.100798D+01          0.003451          0.007947
 Electronic      0.100000D+01          0.000000          0.000000
 Translational   0.255617D+07          6.407590         14.754021
 Rotational      0.376332D+02          1.575571          3.627886
 ***** Axes restored to original set *****
 -------------------------------------------------------------------
 Center     Atomic                   Forces (Hartrees/Bohr)
 Number     Number              X              Y              Z
 -------------------------------------------------------------------
      1        6           0.000000000    0.000000000   -0.000000000
      2        1           0.000143597   -0.000000004   -0.000000001
      3        1          -0.000047863    0.000073465    0.000113720
      4        1          -0.000047870   -0.000135214    0.000006762
      5        1          -0.000047865    0.000061753   -0.000120481
 -------------------------------------------------------------------
 Cartesian Forces:  Max     0.000143597 RMS     0.000074153
 FormGI is forming the generalized inverse of G from B-inverse, IUseBI=4.

 GradGradGradGradGradGradGradGradGradGradGradGradGradGradGradGradGradGrad
 Berny optimization.
 Internal  Forces:  Max     0.000143597 RMS     0.000076756
 Search for a local minimum.
 Step number   1 out of a maximum of    2
 All quantities printed in internal units (Hartrees-Bohrs-Radians)
 Second derivative matrix not updated -- analytic derivatives used.
 The second derivative matrix:
                          R1        R2        R3        R4        A1
           R1           0.34078
           R2           0.00128   0.34078
           R3           0.00128   0.00128   0.34078
           R4           0.00128   0.00128   0.00128   0.34078
           A1           0.00155   0.00155  -0.00097  -0.00213   0.01940
           A2           0.00243  -0.00063   0.00270  -0.00450  -0.00858
           A3           0.00475  -0.00381  -0.00422   0.00328  -0.01284
           A4          -0.00063   0.00243   0.00270  -0.00450  -0.00858
           A5          -0.00381   0.00475  -0.00422   0.00328  -0.01284
           A6          -0.00429  -0.00429   0.00400   0.00458   0.02345
           D1           0.00300   0.00300   0.00212  -0.00812   0.01325
           D2          -0.00247  -0.00247   0.00636  -0.00141  -0.00802
           D3           0.00325  -0.00573   0.00318  -0.00071  -0.00401
           D4           0.00573  -0.00325  -0.00318   0.00071   0.00401
                          A2        A3        A4        A5        A6
           A2           0.03660
           A3          -0.02222   0.07149
           A4          -0.00199   0.02430   0.03660
           A5           0.02430  -0.03462  -0.02222   0.07149
           A6          -0.02811  -0.02611  -0.02811  -0.02611   0.08497
           D1           0.01069  -0.01446   0.01069  -0.01446  -0.00570
           D2           0.00924  -0.00685   0.00924  -0.00685   0.00325
           D3           0.01400   0.00058  -0.00476  -0.00743   0.00163
           D4           0.00476   0.00743  -0.01400  -0.00058  -0.00163
                          D1        D2        D3        D4
           D1           0.02931
           D2           0.00148   0.01822
           D3           0.00074   0.00911   0.01850
           D4          -0.00074  -0.00911   0.00939   0.01850
 ITU=  0
     Eigenvalues ---    0.03753   0.04230   0.06436   0.12923   0.12967
     Eigenvalues ---    0.34009   0.34010   0.34028   0.34463
 Angle between quadratic step and forces=   0.00 degrees.
 Linear search not attempted -- first point.
 Iteration  1 RMS(Cart)=  0.00022272 RMS(Int)=  0.00000000
 Iteration  2 RMS(Cart)=  0.00000000 RMS(Int)=  0.00000000
 ClnCor:  largest displacement from symmetrization is 1.38D-13 for atom     3.
 Variable       Old X    -DE/DX   Delta X   Delta X   Delta X     New X
                                 (Linear)    (Quad)   (Total)
    R1        2.08429   0.00014   0.00000   0.00042   0.00042   2.08471
    R2        2.08429   0.00014   0.00000   0.00042   0.00042   2.08471
    R3        2.08429   0.00014   0.00000   0.00042   0.00042   2.08471
    R4        2.08429   0.00014   0.00000   0.00042   0.00042   2.08471
    A1        1.91063   0.00000   0.00000   0.00000   0.00000   1.91063
    A2        1.91063   0.00000   0.00000   0.00000   0.00000   1.91063
    A3        1.91063  -0.00000   0.00000   0.00000   0.00000   1.91063
    A4        1.91063  -0.00000   0.00000  -0.00000  -0.00000   1.91063
    A5        1.91063   0.00000   0.00000  -0.00000   0.00000   1.91063
    A6        1.91063   0.00000   0.00000  -0.00000   0.00000   1.91063
    D1        2.09440  -0.00000   0.00000   0.00000   0.00000   2.09440
    D2       -2.09440   0.00000   0.00000  -0.00000   0.00000  -2.09440
    D3        2.09440   0.00000   0.00000   0.00000   0.00000   2.09440
    D4       -2.09440   0.00000   0.00000   0.00000   0.00000  -2.09440
         Item               Value     Threshold  Converged?
 Maximum Force            0.000144     0.000450     YES
 RMS     Force            0.000077     0.000300     YES
 Maximum Displacement     0.000417     0.001800     YES
 RMS     Displacement     0.000223     0.001200     YES
 Predicted change in Energy=-1.196664D-07
 Optimization completed.
    -- Stationary point found.
                           ----------------------------
                           !   Optimized Parameters   !
                           ! (Angstroms and Degrees)  !
 --------------------------                            --------------------------
 ! Name  Definition              Value          Derivative Info.                !
 --------------------------------------------------------------------------------
 ! R1    R(1,2)                  1.103          -DE/DX =    0.0001              !
 ! R2    R(1,3)                  1.103          -DE/DX =    0.0001              !
 ! R3    R(1,4)                  1.103          -DE/DX =    0.0001              !
 ! R4    R(1,5)                  1.103          -DE/DX =    0.0001              !
 ! A1    A(2,1,3)              109.4712         -DE/DX =    0.0                 !
 ! A2    A(2,1,4)              109.4712         -DE/DX =    0.0                 !
 ! A3    A(2,1,5)              109.4712         -DE/DX =    0.0                 !
 ! A4    A(3,1,4)              109.4712         -DE/DX =    0.0                 !
 ! A5    A(3,1,5)              109.4712         -DE/DX =    0.0                 !
 ! A6    A(4,1,5)              109.4712         -DE/DX =    0.0                 !
 ! D1    D(2,1,4,3)            120.0            -DE/DX =    0.0                 !
 ! D2    D(2,1,5,3)           -120.0            -DE/DX =    0.0                 !
 ! D3    D(2,1,5,4)            120.0            -DE/DX =    0.0                 !
 ! D4    D(3,1,5,4)           -120.0            -DE/DX =    0.0                 !
 --------------------------------------------------------------------------------
 GradGradGradGradGradGradGradGradGradGradGradGradGradGradGradGradGradGrad

 Dipole is zero, so no output in dipole orientation.

 ----------------------------------------------------------------------

 Electric dipole moment (input orientation):
 (Debye = 10**-18 statcoulomb cm , SI units = C m)
                  (au)            (Debye)         (10**-30 SI)
   Tot        0.000000D+00      0.000000D+00      0.000000D+00
   x          0.000000D+00      0.000000D+00      0.000000D+00
   y          0.000000D+00      0.000000D+00      0.000000D+00
   z          0.000000D+00      0.000000D+00      0.000000D+00

 Dipole polarizability, Alpha (input orientation).
 (esu units = cm**3 , SI units = C**2 m**2 J**-1)
 Alpha(0;0):
               (au)            (10**-24 esu)      (10**-40 SI)
   iso        0.123768D+02      0.183405D+01      0.204065D+01
   aniso      0.000000D+00      0.000000D+00      0.000000D+00
   xx         0.123768D+02      0.183405D+01      0.204065D+01
   yx         0.000000D+00      0.000000D+00      0.000000D+00
   yy         0.123768D+02      0.183405D+01      0.204065D+01
   zx         0.000000D+00      0.000000D+00      0.000000D+00
   zy         0.000000D+00      0.000000D+00      0.000000D+00
   zz         0.123768D+02      0.183405D+01      0.204065D+01

 ----------------------------------------------------------------------
 Unable to Open any file for archive entry.
 1\1\GINC-NODE02\Freq\RB3LYP\def2SVPP\C1H4\XUHJ\19-Dec-2023\0\\#N Geom=
 AllCheck Guess=TCheck SCRF=Check GenChk RB3LYP/def2SVPP Freq\\C_1\\0,1
 \C,1.024391,-0.096803,0.005828\H,2.1273509351,-0.0968356813,0.00581879
 34\H,0.6567616989,0.4674786191,0.87930128\H,0.6567073481,-1.135374861,
 0.0577687465\H,0.6567440179,0.3775199232,-0.9195768199\\Version=ES64L-
 G16RevC.01\State=1-A1\HF=-40.4797505\RMSD=3.233e-18\RMSF=7.415e-05\Zer
 oPoint=0.0426232\Thermal=0.0455035\ETot=-40.434247\HTot=-40.4333028\GT
 ot=-40.4544907\Dipole=0.,0.,0.\DipoleDeriv=-0.0391085,0.,0.,0.,-0.0391
 085,0.,0.,0.,-0.0391085,-0.1249298,0.000006,0.0000017,0.000006,0.07713
 06,0.,0.0000017,0.,0.0771306,0.0546824,0.0344562,0.0533361,0.0344562,0
 .024243,-0.0818667,0.0533361,-0.0818667,-0.049594,0.0546757,-0.0634268
 ,0.0031721,-0.0634268,-0.1020268,0.00896,0.0031721,0.00896,0.0766825,0
 .0546802,0.0289645,-0.0565099,0.0289645,0.0397617,0.0729067,-0.0565099
 ,0.0729067,-0.0651105\Polar=12.3767735,0.,12.3767735,0.,0.,12.3767735\
 Quadrupole=0.,0.,0.,0.,0.,0.\PG=TD [O(C1),4C3(H1)]\NImag=0\\0.55146845
 ,0.,0.55146845,0.,0.,0.55146845,-0.32043180,0.00000811,0.00000229,0.34
 078372,0.00000811,-0.04658477,0.,-0.00000881,0.04356541,0.00000229,0.,
 -0.04658477,-0.00000248,0.,0.04356541,-0.07700824,0.04669760,0.0722850
 2,-0.00678330,0.01635491,0.02531659,0.07658535,0.04669760,-0.11826186,
 -0.11095173,-0.00056382,-0.00002097,0.00227644,-0.05068298,0.12135973,
 0.07228502,-0.11095173,-0.21833124,-0.00087297,0.00227708,0.00203321,-
 0.07845413,0.12042083,0.22996946,-0.07701724,-0.08596060,0.00429904,-0
 .00678482,-0.03010173,0.00150539,0.00360335,0.01129562,-0.00230659,0.0
 7659512,-0.08596060,-0.28939203,0.01214320,0.00103846,0.00349290,-0.00
 024928,-0.00472380,-0.01171115,0.00226838,0.09329685,0.30709488,0.0042
 9904,0.01214320,-0.04719207,-0.00005188,-0.00024897,-0.00147914,-0.010
 51812,-0.02318914,0.00333674,-0.00466593,-0.01317956,0.04422454,-0.077
 01117,0.03925488,-0.07658634,-0.00678380,0.01374752,-0.02682178,0.0036
 0284,-0.00674643,0.00934868,0.00360359,-0.00365091,0.01093689,0.076588
 53,0.03925488,-0.09722979,0.09880853,-0.00047395,-0.00045256,-0.002027
 17,-0.00764573,0.00863426,-0.01401455,0.01146986,-0.00948460,0.0244744
 7,-0.04260506,0.09853270,-0.07658634,0.09880853,-0.23936038,0.00092505
 ,-0.00202811,0.00246529,-0.00862936,0.01144360,-0.01700817,0.00116811,
 -0.00098275,0.00110993,0.08312255,-0.10724127,0.25279331\\0.,0.,0.,-0.
 00014360,0.,0.,0.00004786,-0.00007347,-0.00011372,0.00004787,0.0001352
 1,-0.00000676,0.00004786,-0.00006175,0.00012048\\\@
 The archive entry for this job was punched.


 THE WORLD IS NOT A HAMBURGER - YOU CAN'T HAVE IT YOUR WAY.
 Job cpu time:       0 days  0 hours  0 minutes 28.5 seconds.
 Elapsed time:       0 days  0 hours  0 minutes  2.5 seconds.
 File lengths (MBytes):  RWF=     17 Int=      0 D2E=      0 Chk=      2 Scr=      2
 Normal termination of Gaussian 16 at Tue Dec 19 12:52:53 2023.
