 Entering Gaussian System, Link 0=g16
 Initial command:
 /opt/g16/l1.exe "/tmp/Gau-1350460.inp" -scrdir="/tmp/"
 Entering Link 1 = /opt/g16/l1.exe PID=   1350462.
  
 Copyright (c) 1988-2019, Gaussian, Inc.  All Rights Reserved.
  
 This is part of the Gaussian(R) 16 program.  It is based on
 the Gaussian(R) 09 system (copyright 2009, Gaussian, Inc.),
 the Gaussian(R) 03 system (copyright 2003, Gaussian, Inc.),
 the Gaussian(R) 98 system (copyright 1998, Gaussian, Inc.),
 the Gaussian(R) 94 system (copyright 1995, Gaussian, Inc.),
 the Gaussian 92(TM) system (copyright 1992, Gaussian, Inc.),
 the Gaussian 90(TM) system (copyright 1990, Gaussian, Inc.),
 the Gaussian 88(TM) system (copyright 1988, Gaussian, Inc.),
 the Gaussian 86(TM) system (copyright 1986, Carnegie Mellon
 University), and the Gaussian 82(TM) system (copyright 1983,
 Carnegie Mellon University). Gaussian is a federally registered
 trademark of Gaussian, Inc.
  
 This software contains proprietary and confidential information,
 including trade secrets, belonging to Gaussian, Inc.
  
 This software is provided under written license and may be
 used, copied, transmitted, or stored only in accord with that
 written license.
  
 The following legend is applicable only to US Government
 contracts under FAR:
  
                    RESTRICTED RIGHTS LEGEND
  
 Use, reproduction and disclosure by the US Government is
 subject to restrictions as set forth in subparagraphs (a)
 and (c) of the Commercial Computer Software - Restricted
 Rights clause in FAR 52.227-19.
  
 Gaussian, Inc.
 340 Quinnipiac St., Bldg. 40, Wallingford CT 06492
  
  
 ---------------------------------------------------------------
 Warning -- This program may not be used in any manner that
 competes with the business of Gaussian, Inc. or will provide
 assistance to any competitor of Gaussian, Inc.  The licensee
 of this program is prohibited from giving any competitor of
 Gaussian, Inc. access to this program.  By using this program,
 the user acknowledges that Gaussian, Inc. is engaged in the
 business of creating and licensing software in the field of
 computational chemistry and represents and warrants to the
 licensee that it is not a competitor of Gaussian, Inc. and that
 it will not use this program in any manner prohibited above.
 ---------------------------------------------------------------
  

 Cite this work as:
 Gaussian 16, Revision C.01,
 M. J. Frisch, G. W. Trucks, H. B. Schlegel, G. E. Scuseria, 
 M. A. Robb, J. R. Cheeseman, G. Scalmani, V. Barone, 
 G. A. Petersson, H. Nakatsuji, X. Li, M. Caricato, A. V. Marenich, 
 J. Bloino, B. G. Janesko, R. Gomperts, B. Mennucci, H. P. Hratchian, 
 J. V. Ortiz, A. F. Izmaylov, J. L. Sonnenberg, D. Williams-Young, 
 F. Ding, F. Lipparini, F. Egidi, J. Goings, B. Peng, A. Petrone, 
 T. Henderson, D. Ranasinghe, V. G. Zakrzewski, J. Gao, N. Rega, 
 G. Zheng, W. Liang, M. Hada, M. Ehara, K. Toyota, R. Fukuda, 
 J. Hasegawa, M. Ishida, T. Nakajima, Y. Honda, O. Kitao, H. Nakai, 
 T. Vreven, K. Throssell, J. A. Montgomery, Jr., J. E. Peralta, 
 F. Ogliaro, M. J. Bearpark, J. J. Heyd, E. N. Brothers, K. N. Kudin, 
 V. N. Staroverov, T. A. Keith, R. Kobayashi, J. Normand, 
 K. Raghavachari, A. P. Rendell, J. C. Burant, S. S. Iyengar, 
 J. Tomasi, M. Cossi, J. M. Millam, M. Klene, C. Adamo, R. Cammi, 
 J. W. Ochterski, R. L. Martin, K. Morokuma, O. Farkas, 
 J. B. Foresman, and D. J. Fox, Gaussian, Inc., Wallingford CT, 2019.
 
 ******************************************
 Gaussian 16:  ES64L-G16RevC.01  3-Jul-2019
                 8-Oct-2024 
 ******************************************
 %nprocshared=8
 Will use up to    8 processors via shared memory.
 %mem=9600MB
 ----------------------------------------------------------------------
 #N opt freq B3LYP/def2SVPP symm=veryloose em=gd3bj scale=0.961 press=0
 .987
 ----------------------------------------------------------------------
 1/18=20,19=15,26=3,38=1,113=-987000,114=961000/1,3;
 2/9=110,12=2,17=2,18=2,40=1/2;
 3/5=43,7=202,11=2,25=1,30=1,71=1,74=-5,124=41/1,2,3;
 4//1;
 5/5=2,38=5/2;
 6/7=2,8=2,9=2,10=2,28=1/1;
 7//1,2,3,16;
 1/18=20,19=15,26=3/3(2);
 2/9=110/2;
 99//99;
 2/9=110/2;
 3/5=43,7=202,11=2,25=1,30=1,71=1,74=-5,124=41/1,2,3;
 4/5=5,16=3,69=1/1;
 5/5=2,38=5/2;
 7//1,2,3,16;
 1/18=20,19=15,26=3/3(-5);
 2/9=110/2;
 6/7=2,8=2,9=2,10=2,19=2,28=1/1;
 99/9=1/99;
 ----------------------------------------
 c1cc2ccc3ccc4ccc5ccc6ccc1c1c2c3c4c5c61_2
 ----------------------------------------
 Symbolic Z-matrix:
 Charge =  0 Multiplicity = 1
 C                     3.0069   -2.1829    0.1882 
 C                     3.6021   -0.9206    0.1292 
 C                     2.8171    0.2375    0.0539 
 C                     3.3986    1.5108   -0.0059 
 C                     2.6021    2.6557   -0.0807 
 C                     1.2047    2.555    -0.0975 
 C                     0.3918    3.6936   -0.1723 
 C                    -1.        3.5763   -0.1881 
 C                    -1.6124    2.3175   -0.1296 
 C                    -3.0069    2.1829   -0.1445 
 C                    -3.6021    0.9206   -0.0855 
 C                    -2.8171   -0.2375   -0.0101 
 C                    -3.3986   -1.5108    0.0497 
 C                    -2.6021   -2.6557    0.1245 
 C                    -1.2047   -2.555     0.1413 
 C                    -0.3917   -3.6936    0.216 
 C                     1.       -3.5763    0.2318 
 C                     1.6124   -2.3175    0.1733 
 C                     0.8066   -1.1593    0.0976 
 C                     1.4093    0.1188    0.0379 
 C                     0.6027    1.2781   -0.0379 
 C                    -0.8066    1.1593   -0.0539 
 C                    -1.4093   -0.1188    0.0058 
 C                    -0.6027   -1.2781    0.0816 
 H                     3.6449   -3.0619    0.2461 
 H                     4.6875   -0.8509    0.1427 
 H                     4.4805    1.6237    0.0052 
 H                     3.0851    3.6292   -0.1259 
 H                     0.8356    4.6856   -0.219 
 H                    -1.6024    4.4801   -0.2467 
 H                    -3.6449    3.062    -0.2023 
 H                    -4.6875    0.8509   -0.099 
 H                    -4.4805   -1.6237    0.0385 
 H                    -3.0851   -3.6293    0.1696 
 H                    -0.8355   -4.6856    0.2627 
 H                     1.6024   -4.4801    0.2904 
 

 GradGradGradGradGradGradGradGradGradGradGradGradGradGradGradGradGradGrad
 Berny optimization.
 Initialization pass.
                           ----------------------------
                           !    Initial Parameters    !
                           ! (Angstroms and Degrees)  !
 --------------------------                            --------------------------
 ! Name  Definition              Value          Derivative Info.                !
 --------------------------------------------------------------------------------
 ! R1    R(1,2)                  1.3968         estimate D2E/DX2                !
 ! R2    R(1,18)                 1.4011         estimate D2E/DX2                !
 ! R3    R(1,25)                 1.0877         estimate D2E/DX2                !
 ! R4    R(2,3)                  1.4011         estimate D2E/DX2                !
 ! R5    R(2,26)                 1.0877         estimate D2E/DX2                !
 ! R6    R(3,4)                  1.4011         estimate D2E/DX2                !
 ! R7    R(3,20)                 1.4129         estimate D2E/DX2                !
 ! R8    R(4,5)                  1.3967         estimate D2E/DX2                !
 ! R9    R(4,27)                 1.0878         estimate D2E/DX2                !
 ! R10   R(5,6)                  1.4011         estimate D2E/DX2                !
 ! R11   R(5,28)                 1.0877         estimate D2E/DX2                !
 ! R12   R(6,7)                  1.401          estimate D2E/DX2                !
 ! R13   R(6,21)                 1.413          estimate D2E/DX2                !
 ! R14   R(7,8)                  1.3968         estimate D2E/DX2                !
 ! R15   R(7,29)                 1.0878         estimate D2E/DX2                !
 ! R16   R(8,9)                  1.4011         estimate D2E/DX2                !
 ! R17   R(8,30)                 1.0877         estimate D2E/DX2                !
 ! R18   R(9,10)                 1.4011         estimate D2E/DX2                !
 ! R19   R(9,22)                 1.413          estimate D2E/DX2                !
 ! R20   R(10,11)                1.3968         estimate D2E/DX2                !
 ! R21   R(10,31)                1.0878         estimate D2E/DX2                !
 ! R22   R(11,12)                1.4011         estimate D2E/DX2                !
 ! R23   R(11,32)                1.0877         estimate D2E/DX2                !
 ! R24   R(12,13)                1.4011         estimate D2E/DX2                !
 ! R25   R(12,23)                1.4129         estimate D2E/DX2                !
 ! R26   R(13,14)                1.3967         estimate D2E/DX2                !
 ! R27   R(13,33)                1.0878         estimate D2E/DX2                !
 ! R28   R(14,15)                1.4011         estimate D2E/DX2                !
 ! R29   R(14,34)                1.0878         estimate D2E/DX2                !
 ! R30   R(15,16)                1.4011         estimate D2E/DX2                !
 ! R31   R(15,24)                1.413          estimate D2E/DX2                !
 ! R32   R(16,17)                1.3967         estimate D2E/DX2                !
 ! R33   R(16,35)                1.0878         estimate D2E/DX2                !
 ! R34   R(17,18)                1.4011         estimate D2E/DX2                !
 ! R35   R(17,36)                1.0877         estimate D2E/DX2                !
 ! R36   R(18,19)                1.413          estimate D2E/DX2                !
 ! R37   R(19,20)                1.4143         estimate D2E/DX2                !
 ! R38   R(19,24)                1.4144         estimate D2E/DX2                !
 ! R39   R(20,21)                1.4143         estimate D2E/DX2                !
 ! R40   R(21,22)                1.4144         estimate D2E/DX2                !
 ! R41   R(22,23)                1.4143         estimate D2E/DX2                !
 ! R42   R(23,24)                1.4143         estimate D2E/DX2                !
 ! A1    A(2,1,18)             120.6958         estimate D2E/DX2                !
 ! A2    A(2,1,25)             118.8564         estimate D2E/DX2                !
 ! A3    A(18,1,25)            120.4478         estimate D2E/DX2                !
 ! A4    A(1,2,3)              120.6963         estimate D2E/DX2                !
 ! A5    A(1,2,26)             118.8541         estimate D2E/DX2                !
 ! A6    A(3,2,26)             120.4496         estimate D2E/DX2                !
 ! A7    A(2,3,4)              121.3954         estimate D2E/DX2                !
 ! A8    A(2,3,20)             119.3027         estimate D2E/DX2                !
 ! A9    A(4,3,20)             119.3019         estimate D2E/DX2                !
 ! A10   A(3,4,5)              120.701          estimate D2E/DX2                !
 ! A11   A(3,4,27)             120.4416         estimate D2E/DX2                !
 ! A12   A(5,4,27)             118.8574         estimate D2E/DX2                !
 ! A13   A(4,5,6)              120.6959         estimate D2E/DX2                !
 ! A14   A(4,5,28)             118.8589         estimate D2E/DX2                !
 ! A15   A(6,5,28)             120.4453         estimate D2E/DX2                !
 ! A16   A(5,6,7)              121.3937         estimate D2E/DX2                !
 ! A17   A(5,6,21)             119.2992         estimate D2E/DX2                !
 ! A18   A(7,6,21)             119.3071         estimate D2E/DX2                !
 ! A19   A(6,7,8)              120.6969         estimate D2E/DX2                !
 ! A20   A(6,7,29)             120.4459         estimate D2E/DX2                !
 ! A21   A(8,7,29)             118.8572         estimate D2E/DX2                !
 ! A22   A(7,8,9)              120.6968         estimate D2E/DX2                !
 ! A23   A(7,8,30)             118.8587         estimate D2E/DX2                !
 ! A24   A(9,8,30)             120.4445         estimate D2E/DX2                !
 ! A25   A(8,9,10)             121.3936         estimate D2E/DX2                !
 ! A26   A(8,9,22)             119.3026         estimate D2E/DX2                !
 ! A27   A(10,9,22)            119.3039         estimate D2E/DX2                !
 ! A28   A(9,10,11)            120.6958         estimate D2E/DX2                !
 ! A29   A(9,10,31)            120.4448         estimate D2E/DX2                !
 ! A30   A(11,10,31)           118.8594         estimate D2E/DX2                !
 ! A31   A(10,11,12)           120.6964         estimate D2E/DX2                !
 ! A32   A(10,11,32)           118.8541         estimate D2E/DX2                !
 ! A33   A(12,11,32)           120.4495         estimate D2E/DX2                !
 ! A34   A(11,12,13)           121.3955         estimate D2E/DX2                !
 ! A35   A(11,12,23)           119.3024         estimate D2E/DX2                !
 ! A36   A(13,12,23)           119.3022         estimate D2E/DX2                !
 ! A37   A(12,13,14)           120.701          estimate D2E/DX2                !
 ! A38   A(12,13,33)           120.4413         estimate D2E/DX2                !
 ! A39   A(14,13,33)           118.8577         estimate D2E/DX2                !
 ! A40   A(13,14,15)           120.6959         estimate D2E/DX2                !
 ! A41   A(13,14,34)           118.861          estimate D2E/DX2                !
 ! A42   A(15,14,34)           120.4431         estimate D2E/DX2                !
 ! A43   A(14,15,16)           121.3971         estimate D2E/DX2                !
 ! A44   A(14,15,24)           119.2991         estimate D2E/DX2                !
 ! A45   A(16,15,24)           119.3038         estimate D2E/DX2                !
 ! A46   A(15,16,17)           120.7            estimate D2E/DX2                !
 ! A47   A(15,16,35)           120.4425         estimate D2E/DX2                !
 ! A48   A(17,16,35)           118.8576         estimate D2E/DX2                !
 ! A49   A(16,17,18)           120.6971         estimate D2E/DX2                !
 ! A50   A(16,17,36)           118.8584         estimate D2E/DX2                !
 ! A51   A(18,17,36)           120.4445         estimate D2E/DX2                !
 ! A52   A(1,18,17)            121.3936         estimate D2E/DX2                !
 ! A53   A(1,18,19)            119.3039         estimate D2E/DX2                !
 ! A54   A(17,18,19)           119.3026         estimate D2E/DX2                !
 ! A55   A(18,19,20)           119.9985         estimate D2E/DX2                !
 ! A56   A(18,19,24)           119.9997         estimate D2E/DX2                !
 ! A57   A(20,19,24)           120.0019         estimate D2E/DX2                !
 ! A58   A(3,20,19)            120.0029         estimate D2E/DX2                !
 ! A59   A(3,20,21)            119.9998         estimate D2E/DX2                !
 ! A60   A(19,20,21)           119.9973         estimate D2E/DX2                !
 ! A61   A(6,21,20)            120.0022         estimate D2E/DX2                !
 ! A62   A(6,21,22)            119.997          estimate D2E/DX2                !
 ! A63   A(20,21,22)           120.0008         estimate D2E/DX2                !
 ! A64   A(9,22,21)            119.9997         estimate D2E/DX2                !
 ! A65   A(9,22,23)            119.9985         estimate D2E/DX2                !
 ! A66   A(21,22,23)           120.0019         estimate D2E/DX2                !
 ! A67   A(12,23,22)           120.0031         estimate D2E/DX2                !
 ! A68   A(12,23,24)           119.9995         estimate D2E/DX2                !
 ! A69   A(22,23,24)           119.9973         estimate D2E/DX2                !
 ! A70   A(15,24,19)           119.9969         estimate D2E/DX2                !
 ! A71   A(15,24,23)           120.0023         estimate D2E/DX2                !
 ! A72   A(19,24,23)           120.0008         estimate D2E/DX2                !
 ! D1    D(18,1,2,3)             0.001          estimate D2E/DX2                !
 ! D2    D(18,1,2,26)          180.0            estimate D2E/DX2                !
 ! D3    D(25,1,2,3)          -179.9954         estimate D2E/DX2                !
 ! D4    D(25,1,2,26)            0.0035         estimate D2E/DX2                !
 ! D5    D(2,1,18,17)          179.9983         estimate D2E/DX2                !
 ! D6    D(2,1,18,19)            0.0019         estimate D2E/DX2                !
 ! D7    D(25,1,18,17)          -0.0054         estimate D2E/DX2                !
 ! D8    D(25,1,18,19)         179.9983         estimate D2E/DX2                !
 ! D9    D(1,2,3,4)            179.9993         estimate D2E/DX2                !
 ! D10   D(1,2,3,20)            -0.0022         estimate D2E/DX2                !
 ! D11   D(26,2,3,4)             0.0004         estimate D2E/DX2                !
 ! D12   D(26,2,3,20)          179.9989         estimate D2E/DX2                !
 ! D13   D(2,3,4,5)            179.9984         estimate D2E/DX2                !
 ! D14   D(2,3,4,27)            -0.0003         estimate D2E/DX2                !
 ! D15   D(20,3,4,5)            -0.0001         estimate D2E/DX2                !
 ! D16   D(20,3,4,27)         -179.9988         estimate D2E/DX2                !
 ! D17   D(2,3,20,19)            0.0004         estimate D2E/DX2                !
 ! D18   D(2,3,20,21)         -179.9958         estimate D2E/DX2                !
 ! D19   D(4,3,20,19)          179.999          estimate D2E/DX2                !
 ! D20   D(4,3,20,21)            0.0028         estimate D2E/DX2                !
 ! D21   D(3,4,5,6)              0.0006         estimate D2E/DX2                !
 ! D22   D(3,4,5,28)          -179.9945         estimate D2E/DX2                !
 ! D23   D(27,4,5,6)           179.9993         estimate D2E/DX2                !
 ! D24   D(27,4,5,28)            0.0043         estimate D2E/DX2                !
 ! D25   D(4,5,6,7)           -179.9961         estimate D2E/DX2                !
 ! D26   D(4,5,6,21)            -0.0037         estimate D2E/DX2                !
 ! D27   D(28,5,6,7)            -0.0012         estimate D2E/DX2                !
 ! D28   D(28,5,6,21)          179.9912         estimate D2E/DX2                !
 ! D29   D(5,6,7,8)           -179.9996         estimate D2E/DX2                !
 ! D30   D(5,6,7,29)            -0.0067         estimate D2E/DX2                !
 ! D31   D(21,6,7,8)             0.008          estimate D2E/DX2                !
 ! D32   D(21,6,7,29)         -179.9991         estimate D2E/DX2                !
 ! D33   D(5,6,21,20)            0.0064         estimate D2E/DX2                !
 ! D34   D(5,6,21,22)          179.9996         estimate D2E/DX2                !
 ! D35   D(7,6,21,20)          179.999          estimate D2E/DX2                !
 ! D36   D(7,6,21,22)           -0.0078         estimate D2E/DX2                !
 ! D37   D(6,7,8,9)             -0.0059         estimate D2E/DX2                !
 ! D38   D(6,7,8,30)           179.9945         estimate D2E/DX2                !
 ! D39   D(29,7,8,9)          -179.9989         estimate D2E/DX2                !
 ! D40   D(29,7,8,30)            0.0015         estimate D2E/DX2                !
 ! D41   D(7,8,9,10)           179.9998         estimate D2E/DX2                !
 ! D42   D(7,8,9,22)             0.0034         estimate D2E/DX2                !
 ! D43   D(30,8,9,10)           -0.0006         estimate D2E/DX2                !
 ! D44   D(30,8,9,22)         -179.9969         estimate D2E/DX2                !
 ! D45   D(8,9,10,11)         -179.9983         estimate D2E/DX2                !
 ! D46   D(8,9,10,31)           -0.0011         estimate D2E/DX2                !
 ! D47   D(22,9,10,11)          -0.0019         estimate D2E/DX2                !
 ! D48   D(22,9,10,31)         179.9952         estimate D2E/DX2                !
 ! D49   D(8,9,22,21)           -0.0033         estimate D2E/DX2                !
 ! D50   D(8,9,22,23)         -179.9999         estimate D2E/DX2                !
 ! D51   D(10,9,22,21)        -179.9997         estimate D2E/DX2                !
 ! D52   D(10,9,22,23)           0.0037         estimate D2E/DX2                !
 ! D53   D(9,10,11,12)           0.0037         estimate D2E/DX2                !
 ! D54   D(9,10,11,32)        -180.0            estimate D2E/DX2                !
 ! D55   D(31,10,11,12)       -179.9935         estimate D2E/DX2                !
 ! D56   D(31,10,11,32)          0.0028         estimate D2E/DX2                !
 ! D57   D(10,11,12,13)       -179.9992         estimate D2E/DX2                !
 ! D58   D(10,11,12,23)         -0.0072         estimate D2E/DX2                !
 ! D59   D(32,11,12,13)          0.0045         estimate D2E/DX2                !
 ! D60   D(32,11,12,23)        179.9966         estimate D2E/DX2                !
 ! D61   D(11,12,13,14)        179.9968         estimate D2E/DX2                !
 ! D62   D(11,12,13,33)          0.0016         estimate D2E/DX2                !
 ! D63   D(23,12,13,14)          0.0047         estimate D2E/DX2                !
 ! D64   D(23,12,13,33)       -179.9905         estimate D2E/DX2                !
 ! D65   D(11,12,23,22)          0.0089         estimate D2E/DX2                !
 ! D66   D(11,12,23,24)       -179.9996         estimate D2E/DX2                !
 ! D67   D(13,12,23,22)       -179.9989         estimate D2E/DX2                !
 ! D68   D(13,12,23,24)         -0.0074         estimate D2E/DX2                !
 ! D69   D(12,13,14,15)         -0.0006         estimate D2E/DX2                !
 ! D70   D(12,13,14,34)       -179.9992         estimate D2E/DX2                !
 ! D71   D(33,13,14,15)        179.9947         estimate D2E/DX2                !
 ! D72   D(33,13,14,34)         -0.004          estimate D2E/DX2                !
 ! D73   D(13,14,15,16)       -179.999          estimate D2E/DX2                !
 ! D74   D(13,14,15,24)         -0.0009         estimate D2E/DX2                !
 ! D75   D(34,14,15,16)         -0.0004         estimate D2E/DX2                !
 ! D76   D(34,14,15,24)        179.9977         estimate D2E/DX2                !
 ! D77   D(14,15,16,17)        179.9996         estimate D2E/DX2                !
 ! D78   D(14,15,16,35)          0.0017         estimate D2E/DX2                !
 ! D79   D(24,15,16,17)          0.0015         estimate D2E/DX2                !
 ! D80   D(24,15,16,35)       -179.9964         estimate D2E/DX2                !
 ! D81   D(14,15,24,19)       -179.9997         estimate D2E/DX2                !
 ! D82   D(14,15,24,23)         -0.0018         estimate D2E/DX2                !
 ! D83   D(16,15,24,19)         -0.0015         estimate D2E/DX2                !
 ! D84   D(16,15,24,23)        179.9963         estimate D2E/DX2                !
 ! D85   D(15,16,17,18)          0.001          estimate D2E/DX2                !
 ! D86   D(15,16,17,36)       -179.9993         estimate D2E/DX2                !
 ! D87   D(35,16,17,18)        179.9989         estimate D2E/DX2                !
 ! D88   D(35,16,17,36)         -0.0014         estimate D2E/DX2                !
 ! D89   D(16,17,18,1)        -179.9997         estimate D2E/DX2                !
 ! D90   D(16,17,18,19)         -0.0034         estimate D2E/DX2                !
 ! D91   D(36,17,18,1)           0.0006         estimate D2E/DX2                !
 ! D92   D(36,17,18,19)        179.9969         estimate D2E/DX2                !
 ! D93   D(1,18,19,20)          -0.0037         estimate D2E/DX2                !
 ! D94   D(1,18,19,24)         179.9997         estimate D2E/DX2                !
 ! D95   D(17,18,19,20)        179.9999         estimate D2E/DX2                !
 ! D96   D(17,18,19,24)          0.0033         estimate D2E/DX2                !
 ! D97   D(18,19,20,3)           0.0025         estimate D2E/DX2                !
 ! D98   D(18,19,20,21)        179.9987         estimate D2E/DX2                !
 ! D99   D(24,19,20,3)         179.9991         estimate D2E/DX2                !
 ! D100  D(24,19,20,21)         -0.0047         estimate D2E/DX2                !
 ! D101  D(18,19,24,15)         -0.0009         estimate D2E/DX2                !
 ! D102  D(18,19,24,23)       -179.9987         estimate D2E/DX2                !
 ! D103  D(20,19,24,15)       -179.9975         estimate D2E/DX2                !
 ! D104  D(20,19,24,23)          0.0047         estimate D2E/DX2                !
 ! D105  D(3,20,21,6)           -0.006          estimate D2E/DX2                !
 ! D106  D(3,20,21,22)        -179.9991         estimate D2E/DX2                !
 ! D107  D(19,20,21,6)         179.9978         estimate D2E/DX2                !
 ! D108  D(19,20,21,22)          0.0047         estimate D2E/DX2                !
 ! D109  D(6,21,22,9)            0.0055         estimate D2E/DX2                !
 ! D110  D(6,21,22,23)        -179.9978         estimate D2E/DX2                !
 ! D111  D(20,21,22,9)         179.9987         estimate D2E/DX2                !
 ! D112  D(20,21,22,23)         -0.0047         estimate D2E/DX2                !
 ! D113  D(9,22,23,12)          -0.0072         estimate D2E/DX2                !
 ! D114  D(9,22,23,24)        -179.9987         estimate D2E/DX2                !
 ! D115  D(21,22,23,12)        179.9962         estimate D2E/DX2                !
 ! D116  D(21,22,23,24)          0.0047         estimate D2E/DX2                !
 ! D117  D(12,23,24,15)          0.006          estimate D2E/DX2                !
 ! D118  D(12,23,24,19)       -179.9962         estimate D2E/DX2                !
 ! D119  D(22,23,24,15)        179.9975         estimate D2E/DX2                !
 ! D120  D(22,23,24,19)         -0.0047         estimate D2E/DX2                !
 --------------------------------------------------------------------------------
 Trust Radius=3.00D-01 FncErr=1.00D-07 GrdErr=1.00D-06 EigMax=2.50D+02 EigMin=1.00D-04
 Number of steps in this run=    216 maximum allowed number of steps=    216.
 GradGradGradGradGradGradGradGradGradGradGradGradGradGradGradGradGradGrad

                          Input orientation:                          
 ---------------------------------------------------------------------
 Center     Atomic      Atomic             Coordinates (Angstroms)
 Number     Number       Type             X           Y           Z
 ---------------------------------------------------------------------
      1          6           0        3.006900   -2.182900    0.188200
      2          6           0        3.602100   -0.920600    0.129200
      3          6           0        2.817100    0.237500    0.053900
      4          6           0        3.398600    1.510800   -0.005900
      5          6           0        2.602100    2.655700   -0.080700
      6          6           0        1.204700    2.555000   -0.097500
      7          6           0        0.391800    3.693600   -0.172300
      8          6           0       -1.000000    3.576300   -0.188100
      9          6           0       -1.612400    2.317500   -0.129600
     10          6           0       -3.006900    2.182900   -0.144500
     11          6           0       -3.602100    0.920600   -0.085500
     12          6           0       -2.817100   -0.237500   -0.010100
     13          6           0       -3.398600   -1.510800    0.049700
     14          6           0       -2.602100   -2.655700    0.124500
     15          6           0       -1.204700   -2.555000    0.141300
     16          6           0       -0.391700   -3.693600    0.216000
     17          6           0        1.000000   -3.576300    0.231800
     18          6           0        1.612400   -2.317500    0.173300
     19          6           0        0.806600   -1.159300    0.097600
     20          6           0        1.409300    0.118800    0.037900
     21          6           0        0.602700    1.278100   -0.037900
     22          6           0       -0.806600    1.159300   -0.053900
     23          6           0       -1.409300   -0.118800    0.005800
     24          6           0       -0.602700   -1.278100    0.081600
     25          1           0        3.644900   -3.061900    0.246100
     26          1           0        4.687500   -0.850900    0.142700
     27          1           0        4.480500    1.623700    0.005200
     28          1           0        3.085100    3.629200   -0.125900
     29          1           0        0.835600    4.685600   -0.219000
     30          1           0       -1.602400    4.480100   -0.246700
     31          1           0       -3.644900    3.062000   -0.202300
     32          1           0       -4.687500    0.850900   -0.099000
     33          1           0       -4.480500   -1.623700    0.038500
     34          1           0       -3.085100   -3.629300    0.169600
     35          1           0       -0.835500   -4.685600    0.262700
     36          1           0        1.602400   -4.480100    0.290400
 ---------------------------------------------------------------------
                    Distance matrix (angstroms):
                    1          2          3          4          5
     1  C    0.000000
     2  C    1.396834   0.000000
     3  C    2.431542   1.401103   0.000000
     4  C    3.719479   2.443639   1.401075   0.000000
     5  C    4.862944   3.719406   2.431467   1.396712   0.000000
     6  C    5.077130   4.228323   2.827289   2.431448   1.401124
     7  C    6.442202   5.629189   4.228223   3.719294   2.443574
     8  C    7.026040   6.442213   5.077047   4.862835   3.719431
     9  C    6.456975   6.143556   4.896993   5.077025   4.228331
    10  C    7.438863   7.306539   6.143527   6.442155   5.629253
    11  C    7.306539   7.438858   6.456949   7.025986   6.442258
    12  C    6.143523   6.456947   5.654550   6.456895   6.143559
    13  C    6.442153   7.025984   6.456895   7.438756   7.306513
    14  C    5.629252   6.442258   6.143559   7.306513   7.438869
    15  C    4.228266   5.077079   4.896996   6.143514   6.456966
    16  C    3.719337   4.862870   5.077029   6.442157   7.025986
    17  C    2.443586   3.719435   4.228306   5.629242   6.442220
    18  C    1.401060   2.431498   2.827293   4.228298   5.077080
    19  C    2.428433   2.805850   2.448483   3.722715   4.220170
    20  C    2.805840   2.428386   1.412886   2.428353   2.805833
    21  C    4.220168   3.722715   2.448437   2.805749   2.428418
    22  C    5.076583   4.878129   3.740660   4.220138   3.722790
    23  C    4.878176   5.076637   4.241665   5.076577   4.878182
    24  C    3.722800   4.220239   3.740701   4.878117   5.076600
    25  H    1.087675   2.144916   3.407086   4.586257   5.821098
    26  H    2.144927   1.087719   2.165848   2.694619   4.085957
    27  H    4.085975   2.694518   2.165830   1.087831   2.144945
    28  H    5.821106   4.586180   3.407019   2.144831   1.087674
    29  H    7.215029   6.261329   4.877131   4.085797   2.694465
    30  H    8.113591   7.509706   6.133677   5.821059   4.586263
    31  H    8.479853   8.275869   7.056974   7.214963   6.261380
    32  H    8.275882   8.479844   7.531179   8.113516   7.509721
    33  H    7.509745   8.113630   7.531220   8.479816   8.275911
    34  H    6.261380   7.215077   7.057017   8.275856   8.479866
    35  H    4.586185   5.821112   6.133677   7.509669   8.113551
    36  H    2.694475   4.085930   4.877210   6.261390   7.215037
                    6          7          8          9         10
     6  C    0.000000
     7  C    1.401004   0.000000
     8  C    2.431453   1.396824   0.000000
     9  C    2.827276   2.431521   1.401083   0.000000
    10  C    4.228267   3.719429   2.443586   1.401060   0.000000
    11  C    5.077079   4.862952   3.719435   2.431498   1.396834
    12  C    4.896996   5.077095   4.228310   2.827297   2.431548
    13  C    6.143514   6.442220   5.629247   4.228302   3.719484
    14  C    6.456966   7.026033   6.442225   5.077085   4.862949
    15  C    5.654585   6.456947   6.143553   4.897026   5.077135
    16  C    6.456917   7.438775   7.306488   6.143523   6.442242
    17  C    6.143548   7.306480   7.438817   6.456944   7.026040
    18  C    4.897020   6.143503   6.456944   5.654583   6.456975
    19  C    3.740665   4.878068   5.076548   4.241618   5.076583
    20  C    2.448523   3.722726   4.220202   3.740723   4.878176
    21  C    1.412951   2.428412   2.805874   2.448557   3.722800
    22  C    2.448511   2.805861   2.428436   1.412965   2.428433
    23  C    3.740705   4.220198   3.722753   2.448498   2.805840
    24  C    4.241630   5.076544   4.878092   3.740647   4.220168
    25  H    6.133694   7.509627   8.113527   7.531155   8.479796
    26  H    4.877268   6.261369   7.215067   7.057028   8.275882
    27  H    3.407159   4.586225   5.821159   6.133756   7.509745
    28  H    2.165783   2.694469   4.085916   4.877200   6.261357
    29  H    2.165745   1.087752   2.144978   3.407139   4.586269
    30  H    3.407063   2.144983   1.087738   2.165791   2.694475
    31  H    4.877156   4.085923   2.694476   2.165784   1.087751
    32  H    6.133676   5.821134   4.586219   3.407065   2.144927
    33  H    7.057020   7.215083   6.261408   4.877224   4.085975
    34  H    7.531221   8.113605   7.509745   6.133742   5.821206
    35  H    7.531165   8.479769   8.275825   7.056974   7.215059
    36  H    7.057001   8.275809   8.479801   7.531182   8.113591
                   11         12         13         14         15
    11  C    0.000000
    12  C    1.401109   0.000000
    13  C    2.443644   1.401075   0.000000
    14  C    3.719411   2.431467   1.396712   0.000000
    15  C    4.228328   2.827289   2.431448   1.401124   0.000000
    16  C    5.629246   4.228275   3.719371   2.443661   1.401056
    17  C    6.442213   5.077042   4.862832   3.719428   2.431449
    18  C    6.143556   4.896989   5.077023   4.228330   2.827275
    19  C    4.878129   3.740657   4.220137   3.722791   2.448513
    20  C    5.076637   4.241664   5.076577   4.878184   3.740708
    21  C    4.220239   3.740702   4.878118   5.076603   4.241634
    22  C    2.805850   2.448485   3.722718   4.220174   3.740670
    23  C    2.428386   1.412885   2.428355   2.805837   2.448529
    24  C    3.722715   2.448433   2.805748   2.428420   1.412955
    25  H    8.275825   7.056934   7.214941   6.261373   4.877146
    26  H    8.479844   7.531177   8.113515   7.509721   6.133676
    27  H    8.113630   7.531219   8.479816   8.275912   7.057022
    28  H    7.215039   7.056964   8.275796   8.479794   7.531143
    29  H    5.821188   6.133740   7.509729   8.113597   7.531197
    30  H    4.085930   4.877215   6.261395   7.215042   7.057007
    31  H    2.145010   3.407183   4.586357   5.821196   6.133786
    32  H    1.087719   2.165852   2.694625   4.085962   4.877273
    33  H    2.694518   2.165828   1.087832   2.144949   3.407162
    34  H    4.586279   3.407114   2.144924   1.087759   2.165831
    35  H    6.261373   4.877166   4.085854   2.694526   2.165757
    36  H    7.509706   6.133672   5.821055   4.586260   3.407059
                   16         17         18         19         20
    16  C    0.000000
    17  C    1.396724   0.000000
    18  C    2.431438   1.401083   0.000000
    19  C    2.805819   2.428436   1.412965   0.000000
    20  C    4.220156   3.722753   2.448498   1.414338   0.000000
    21  C    5.076524   4.878092   3.740647   2.449664   1.414329
    22  C    4.878076   5.076548   4.241618   2.828652   2.449751
    23  C    3.722753   4.220202   3.740723   2.449751   2.828779
    24  C    2.428420   2.805874   2.448557   1.414389   2.449772
    25  H    4.085840   2.694496   2.165753   3.420217   3.893341
    26  H    5.821047   4.586219   3.407065   3.893396   3.420219
    27  H    7.215016   6.261408   4.877224   4.609899   3.420243
    28  H    8.113472   7.509649   6.133645   5.307659   3.893333
    29  H    8.479769   8.275823   7.056963   5.853540   4.609858
    30  H    8.275824   8.479801   7.531182   6.142040   5.307756
    31  H    7.509755   8.113604   7.531222   6.142082   5.853636
    32  H    6.261438   7.215067   7.057028   5.853605   6.142124
    33  H    4.586314   5.821159   6.133756   5.307785   6.142154
    34  H    2.694567   4.085917   4.877227   4.609925   5.853651
    35  H    1.087752   2.144892   3.407067   3.893397   5.307723
    36  H    2.144890   1.087738   2.165791   3.420261   4.609873
                   21         22         23         24         25
    21  C    0.000000
    22  C    1.414389   0.000000
    23  C    2.449772   1.414338   0.000000
    24  C    2.828680   2.449664   1.414329   0.000000
    25  H    5.307658   6.142018   5.853590   4.609892   0.000000
    26  H    4.609864   5.853605   6.142124   5.307773   2.446677
    27  H    3.893409   5.307785   6.142154   5.853649   4.765617
    28  H    3.420194   4.609872   5.853587   6.142029   6.724774
    29  H    3.420248   3.893439   5.307765   6.142051   8.254226
    30  H    3.893439   3.420261   4.609873   5.853550   9.201020
    31  H    4.609928   3.420269   3.893418   5.307735   9.531233
    32  H    5.307773   3.893396   3.420219   4.609864   9.211840
    33  H    5.853649   4.609899   3.420243   3.893409   8.254311
    34  H    6.142109   5.307749   3.893423   3.420262   6.754309
    35  H    6.142027   5.853540   4.609871   3.420241   4.765570
    36  H    5.853550   6.142040   5.307756   3.893439   2.486978
                   26         27         28         29         30
    26  H    0.000000
    27  H    2.487047   0.000000
    28  H    4.765619   2.446704   0.000000
    29  H    6.754317   4.765584   2.486946   0.000000
    30  H    8.254334   6.724890   4.765635   2.446802   0.000000
    31  H    9.211878   8.254325   6.754291   4.765631   2.486923
    32  H    9.531273   9.201103   8.254271   6.724876   4.765580
    33  H    9.201103   9.531329   9.211856   8.254362   6.754345
    34  H    8.254304   9.211913   9.531239   9.201112   8.254337
    35  H    6.724794   8.254298   9.200979   9.531212   9.211823
    36  H    4.765580   6.754345   8.254238   9.211815   9.531233
                   31         32         33         34         35
    31  H    0.000000
    32  H    2.446763   0.000000
    33  H    4.765710   2.487047   0.000000
    34  H    6.724967   4.765713   2.446786   0.000000
    35  H    8.254348   6.754374   4.765661   2.486994   0.000000
    36  H    9.201097   8.254334   6.724890   4.765617   2.446703
                   36
    36  H    0.000000
 Stoichiometry    C24H12
 Framework group  D6H[3C2'(CC.CC),SGH(C12H12)]
 Deg. of freedom     6
 Full point group                 D6H     NOp  24
 Largest Abelian subgroup         D2H     NOp   8
 Largest concise Abelian subgroup D2      NOp   4
                         Standard orientation:                         
 ---------------------------------------------------------------------
 Center     Atomic      Atomic             Coordinates (Angstroms)
 Number     Number       Type             X           Y           Z
 ---------------------------------------------------------------------
      1          6           0        3.653266    0.698417   -0.000000
      2          6           0        3.653266   -0.698417   -0.000000
      3          6           0        2.448488   -1.413635   -0.000000
      4          6           0        2.431480   -2.814613   -0.000000
      5          6           0        1.221786   -3.513030   -0.000000
      6          6           0       -0.000000   -2.827271   -0.000000
      7          6           0       -1.221786   -3.513030    0.000000
      8          6           0       -2.431480   -2.814613   -0.000000
      9          6           0       -2.448488   -1.413635   -0.000000
     10          6           0       -3.653266   -0.698417    0.000000
     11          6           0       -3.653266    0.698417   -0.000000
     12          6           0       -2.448488    1.413635   -0.000000
     13          6           0       -2.431480    2.814613   -0.000000
     14          6           0       -1.221786    3.513030    0.000000
     15          6           0        0.000000    2.827271    0.000000
     16          6           0        1.221786    3.513030    0.000000
     17          6           0        2.431480    2.814613    0.000000
     18          6           0        2.448488    1.413635    0.000000
     19          6           0        1.224839    0.707161   -0.000000
     20          6           0        1.224839   -0.707161   -0.000000
     21          6           0       -0.000000   -1.414323    0.000000
     22          6           0       -1.224839   -0.707161    0.000000
     23          6           0       -1.224839    0.707161   -0.000000
     24          6           0        0.000000    1.414323    0.000000
     25          1           0        4.605888    1.223345   -0.000000
     26          1           0        4.605888   -1.223345   -0.000000
     27          1           0        3.362392   -3.377143    0.000000
     28          1           0        1.243496   -4.600488   -0.000000
     29          1           0       -1.243496   -4.600488    0.000000
     30          1           0       -3.362392   -3.377143   -0.000000
     31          1           0       -4.605888   -1.223345    0.000000
     32          1           0       -4.605888    1.223345   -0.000000
     33          1           0       -3.362392    3.377143   -0.000000
     34          1           0       -1.243496    4.600488    0.000000
     35          1           0        1.243496    4.600488    0.000000
     36          1           0        3.362392    3.377143    0.000000
 ---------------------------------------------------------------------
 Rotational constants (GHZ):           0.3384617           0.3384617           0.1692308
 Standard basis: def2SVPP (5D, 7F)
 There are    77 symmetry adapted cartesian basis functions of AG  symmetry.
 There are    67 symmetry adapted cartesian basis functions of B1G symmetry.
 There are    22 symmetry adapted cartesian basis functions of B2G symmetry.
 There are    26 symmetry adapted cartesian basis functions of B3G symmetry.
 There are    22 symmetry adapted cartesian basis functions of AU  symmetry.
 There are    26 symmetry adapted cartesian basis functions of B1U symmetry.
 There are    77 symmetry adapted cartesian basis functions of B2U symmetry.
 There are    67 symmetry adapted cartesian basis functions of B3U symmetry.
 There are    70 symmetry adapted basis functions of AG  symmetry.
 There are    62 symmetry adapted basis functions of B1G symmetry.
 There are    22 symmetry adapted basis functions of B2G symmetry.
 There are    26 symmetry adapted basis functions of B3G symmetry.
 There are    22 symmetry adapted basis functions of AU  symmetry.
 There are    26 symmetry adapted basis functions of B1U symmetry.
 There are    70 symmetry adapted basis functions of B2U symmetry.
 There are    62 symmetry adapted basis functions of B3U symmetry.
   360 basis functions,   648 primitive gaussians,   384 cartesian basis functions
    78 alpha electrons       78 beta electrons
       nuclear repulsion energy      1842.8165489237 Hartrees.
 NAtoms=   36 NActive=   36 NUniq=    4 SFac= 4.00D+00 NAtFMM=   60 NAOKFM=F Big=F
 Integral buffers will be    131072 words long.
 Raffenetti 2 integral format.
 Two-electron integral symmetry is turned on.
 Nuclear repulsion after empirical dispersion term =     1842.7115955315 Hartrees.
 One-electron integrals computed using PRISM.
  24 Symmetry operations used in ECPInt.
 ECPInt:  NShTT=   14196 NPrTT=   56964 LenC2=   13402 LenP2D=   36540.
 LDataN:  DoStor=T MaxTD1= 4 Len=   56
 NBasis=   360 RedAO= T EigKep=  7.31D-05  NBF=    70    62    22    26    22    26    70    62
 NBsUse=   360 1.00D-06 EigRej= -1.00D+00 NBFU=    70    62    22    26    22    26    70    62
 ExpMin= 1.22D-01 ExpMax= 1.24D+03 ExpMxC= 1.86D+02 IAcc=3 IRadAn=         5 AccDes= 0.00D+00
 Harris functional with IExCor=  402 and IRadAn=       5 diagonalized for initial guess.
 HarFok:  IExCor=  402 AccDes= 0.00D+00 IRadAn=         5 IDoV= 1 UseB2=F ITyADJ=14
 ICtDFT=  3500011 ScaDFX=  1.000000  1.000000  1.000000  1.000000
 FoFCou: FMM=F IPFlag=           0 FMFlag=      100000 FMFlg1=           0
         NFxFlg=           0 DoJE=T BraDBF=F KetDBF=T FulRan=T
         wScrn=  0.000000 ICntrl=       500 IOpCl=  0 I1Cent=   200000004 NGrid=           0
         NMat0=    1 NMatS0=      1 NMatT0=    0 NMatD0=    1 NMtDS0=    0 NMtDT0=    0
 Petite list used in FoFCou.
 Initial guess orbital symmetries:
       Occupied  (E1U) (E1U) (E2G) (E2G) (A1G) (B2U) (A2G) (B1U)
                 (E1U) (E1U) (E2G) (E2G) (B1U) (E2G) (E2G) (E1U)
                 (E1U) (A1G) (E1U) (E1U) (A1G) (B1U) (E2G) (E2G)
                 (A1G) (E1U) (E1U) (E2G) (E2G) (A1G) (B2U) (B1U)
                 (E1U) (E1U) (E2G) (E2G) (E2G) (E2G) (E1U) (E1U)
                 (A1G) (A2G) (B1U) (B2U) (E1U) (E1U) (A1G) (E2G)
                 (E2G) (E1U) (E1U) (E2G) (E2G) (B2U) (A1G) (E1U)
                 (E1U) (E2G) (E2G) (A2U) (A2G) (B2U) (B1U) (E1U)
                 (E1U) (E1G) (E1G) (E2G) (E2G) (E2U) (E2U) (A2U)
                 (B2G) (B1G) (E1G) (E1G) (E2U) (E2U)
       Virtual   (E1G) (E1G) (E2U) (E2U) (A1U) (A2U) (B2G) (E1G)
                 (E1G) (A1G) (E1U) (E1U) (E2G) (E2G) (E2U) (E2U)
                 (B2U) (B1U) (E2G) (E2G) (E1U) (E1U) (A1G) (B1U)
                 (B2G) (A2G) (E1U) (E1U) (E2G) (E2G) (E2G) (E2G)
                 (E1U) (E1U) (A1G) (B2U) (E2G) (E2G) (E1U) (E1U)
                 (A1G) (E1U) (E1U) (A2G) (E2G) (E2G) (B1U) (A1G)
                 (E1U) (E1U) (B1U) (B2U) (E2G) (E2G) (E1U) (E1U)
                 (A1G) (A2G) (B1U) (A2U) (B2U) (E1G) (E1G) (E1U)
                 (E1U) (E2G) (E2G) (E2U) (E2U) (E2G) (E2G) (A2U)
                 (B2G) (E2G) (E2G) (A1G) (E1U) (E1U) (B1G) (A2G)
                 (B1U) (E1G) (E1G) (E2U) (E2U) (A2U) (E1U) (E1U)
                 (E2G) (E2G) (E2U) (E2U) (A1G) (E1G) (E1G) (E2G)
                 (E2G) (E2G) (E2G) (E1U) (E1U) (B1U) (B2U) (B1U)
                 (E1U) (E1U) (A1U) (A2G) (B2G) (B2U) (E1U) (E1U)
                 (A2G) (E1G) (E1G) (E2G) (E2G) (B1U) (E2G) (E2G)
                 (E2U) (E2U) (A1G) (A1G) (E1U) (E1U) (E1U) (E1U)
                 (E2G) (E2G) (B2G) (A2G) (E1U) (E1U) (E2G) (E2G)
                 (B1U) (B2U) (B1U) (E1U) (E1U) (A2U) (B1G) (A1G)
                 (E2G) (E2G) (E1G) (E1G) (E2U) (E2U) (A2G) (B1G)
                 (E1U) (E1U) (E1G) (E1G) (B2U) (E2U) (E2U) (A1U)
                 (E1U) (E1U) (E2G) (E2G) (E2G) (E2G) (B1G) (E2U)
                 (E2U) (B1U) (A2U) (E1G) (E1G) (E1U) (E1U) (A2G)
                 (B1U) (E2G) (E2G) (A1G) (A2G) (A1G) (B2U) (B2G)
                 (E1U) (E1U) (E2G) (E2G) (E1U) (E1U) (E2U) (E2U)
                 (B2U) (A2U) (A1G) (E1G) (E1G) (E2G) (E2G) (E1U)
                 (E1U) (E2G) (E2G) (A1G) (B1U) (B2U) (E2U) (E2U)
                 (B2G) (E1U) (E1U) (E2G) (E2G) (E2G) (E2G) (E1U)
                 (E1U) (E1G) (E1G) (A1G) (B1U) (B2U) (A2G) (E1G)
                 (E1G) (A1U) (E2G) (E2G) (A2U) (E2U) (E2U) (E1U)
                 (E1U) (E1U) (E1U) (B1G) (B2G) (E1G) (E1G) (E2U)
                 (E2U) (A1U) (A2G) (E1U) (E1U) (E2G) (E2G) (E2G)
                 (E2G) (E1G) (E1G) (A1G) (B1U) (E1U) (E1U) (E2U)
                 (E2U) (E2G) (E2G) (A2G) (B2U) (B1U) (A1U) (E1U)
                 (E1U) (B2G) (E2G) (E2G) (A1G) (B1U) (E2G) (E2G)
                 (E1U) (E1U) (A2G) (B1U) (E2G) (E2G) (E1U) (E1U)
                 (B1U) (A2G)
 The electronic state of the initial guess is 1-A1G.
 Requested convergence on RMS density matrix=1.00D-08 within 128 cycles.
 Requested convergence on MAX density matrix=1.00D-06.
 Requested convergence on             energy=1.00D-06.
 No special actions if energy rises.
 Integral accuracy reduced to 1.0D-05 until final iterations.
 Initial convergence to 1.0D-05 achieved.  Increase integral accuracy.
 SCF Done:  E(RB3LYP) =  -921.307926772     A.U. after   19 cycles
            NFock= 19  Conv=0.62D-08     -V/T= 2.0102

 **********************************************************************

            Population analysis using the SCF Density.

 **********************************************************************

 Orbital symmetries:
       Occupied  (E1U) (E1U) (A1G) (E2G) (E2G) (B1U) (B1U) (E2G)
                 (E2G) (E1U) (E1U) (A1G) (E1U) (E1U) (E2G) (E2G)
                 (A1G) (B2U) (A2G) (E1U) (E1U) (B1U) (E2G) (E2G)
                 (A1G) (E1U) (E1U) (E2G) (E2G) (A1G) (B2U) (B1U)
                 (E1U) (E1U) (E2G) (E2G) (E2G) (E2G) (E1U) (E1U)
                 (A1G) (A2G) (B1U) (B2U) (E1U) (E1U) (A1G) (E2G)
                 (E2G) (E2G) (E2G) (E1U) (E1U) (A2U) (A1G) (E1U)
                 (E1U) (B2U) (E2G) (E2G) (E1G) (E1G) (A2G) (B1U)
                 (E1U) (E1U) (B2U) (E2U) (E2U) (E2G) (E2G) (A2U)
                 (B2G) (B1G) (E1G) (E1G) (E2U) (E2U)
       Virtual   (E1G) (E1G) (E2U) (E2U) (A2U) (A1U) (B2G) (A1G)
                 (E1U) (E1U) (E1G) (E1G) (E2G) (E2G) (B2U) (B1U)
                 (E2G) (E2G) (E1U) (E1U) (E2U) (E2U) (A2G) (A1G)
                 (E1U) (E1U) (B1U) (A1G) (E2G) (E2G) (B2G) (E2G)
                 (E2G) (E1U) (E1U) (E1U) (E1U) (A1G) (B2U) (E2G)
                 (E2G) (E2G) (E2G) (B1U) (E1U) (E1U) (A1G) (E1U)
                 (E1U) (A2G) (E2G) (E2G) (B2U) (A1G) (E1U) (E1U)
                 (B1U) (A2U) (A2G) (B2U) (B1U) (E1G) (E1G) (E1U)
                 (E1U) (E2U) (E2U) (E2G) (E2G) (E2G) (E2G) (A2U)
                 (B2G) (B1G) (A1G) (E2G) (E2G) (E1U) (E1U) (E1G)
                 (E1G) (E2U) (E2U) (B1U) (A2G) (A2U) (E2U) (E2U)
                 (E1G) (E1G) (E1U) (E1U) (A1G) (E2G) (E2G) (E2G)
                 (E2G) (B2U) (A1U) (E1U) (E1U) (B1U) (E1U) (E1U)
                 (B2G) (E2G) (E2G) (A2G) (E1G) (E1G) (B1U) (B2U)
                 (E2G) (E2G) (E1U) (E1U) (A2G) (E2U) (E2U) (B1U)
                 (A1G) (E2G) (E2G) (E1U) (E1U) (A1G) (E1U) (E1U)
                 (E2G) (E2G) (B2G) (A2G) (B1U) (E2G) (E2G) (B2U)
                 (E1U) (E1U) (B1U) (E1U) (E1U) (A1G) (E2G) (E2G)
                 (B1G) (A2U) (E1G) (E1G) (A2G) (E2U) (E2U) (E1U)
                 (E1U) (B1G) (B2U) (E2G) (E2G) (E1U) (E1U) (E2G)
                 (E2G) (E2U) (E2U) (E1G) (E1G) (A1U) (B1U) (B1G)
                 (E2U) (E2U) (A2U) (E1U) (E1U) (E1G) (E1G) (A2G)
                 (B1U) (E2G) (E2G) (A1G) (A2G) (A1G) (B2U) (B2G)
                 (E1U) (E1U) (E2U) (E2U) (E2G) (E2G) (E1U) (E1U)
                 (B2U) (A2U) (A1G) (E1G) (E1G) (E2G) (E2G) (E1U)
                 (E1U) (E2G) (E2G) (A1G) (B1U) (B2U) (E2U) (E2U)
                 (B2G) (E1U) (E1U) (E2G) (E2G) (E2G) (E2G) (E1U)
                 (E1U) (E1G) (E1G) (A1G) (B1U) (B2U) (A2G) (E1G)
                 (E1G) (A1U) (E2U) (E2U) (A2U) (E2G) (E2G) (E1U)
                 (E1U) (E1U) (E1U) (B1G) (B2G) (E1G) (E1G) (E2U)
                 (E2U) (A1U) (A2G) (E1U) (E1U) (E2G) (E2G) (E1G)
                 (E1G) (A1G) (E2G) (E2G) (B1U) (E2U) (E2U) (E1U)
                 (E1U) (E2G) (E2G) (A2G) (A1U) (B1U) (B2U) (B2G)
                 (E1U) (E1U) (E2G) (E2G) (B1U) (A1G) (E2G) (E2G)
                 (A2G) (E1U) (E1U) (B1U) (E2G) (E2G) (E1U) (E1U)
                 (B1U) (A2G)
 The electronic state is 1-A1G.
 Alpha  occ. eigenvalues --  -10.19729 -10.19729 -10.19725 -10.19679 -10.19679
 Alpha  occ. eigenvalues --  -10.19679 -10.19588 -10.19577 -10.19577 -10.19567
 Alpha  occ. eigenvalues --  -10.19567 -10.19563 -10.19120 -10.19120 -10.19119
 Alpha  occ. eigenvalues --  -10.19119 -10.19118 -10.19115 -10.19087 -10.19080
 Alpha  occ. eigenvalues --  -10.19080 -10.19079 -10.19078 -10.19078  -0.90794
 Alpha  occ. eigenvalues --   -0.87022  -0.87022  -0.82193  -0.82193  -0.80549
 Alpha  occ. eigenvalues --   -0.76797  -0.76420  -0.74020  -0.74020  -0.70719
 Alpha  occ. eigenvalues --   -0.70719  -0.63924  -0.63924  -0.63115  -0.63115
 Alpha  occ. eigenvalues --   -0.62416  -0.56188  -0.55747  -0.54268  -0.54107
 Alpha  occ. eigenvalues --   -0.54107  -0.52113  -0.48098  -0.48098  -0.46022
 Alpha  occ. eigenvalues --   -0.46022  -0.45980  -0.45980  -0.43609  -0.43054
 Alpha  occ. eigenvalues --   -0.42864  -0.42864  -0.42320  -0.40070  -0.40070
 Alpha  occ. eigenvalues --   -0.39244  -0.39244  -0.38695  -0.38298  -0.36873
 Alpha  occ. eigenvalues --   -0.36873  -0.35880  -0.33720  -0.33720  -0.32508
 Alpha  occ. eigenvalues --   -0.32508  -0.32148  -0.27869  -0.26966  -0.25573
 Alpha  occ. eigenvalues --   -0.25573  -0.20668  -0.20668
 Alpha virt. eigenvalues --   -0.06190  -0.06190  -0.02295  -0.02295   0.00458
 Alpha virt. eigenvalues --    0.01011   0.05821   0.06204   0.07252   0.07252
 Alpha virt. eigenvalues --    0.08826   0.08826   0.08849   0.08849   0.10796
 Alpha virt. eigenvalues --    0.11015   0.13148   0.13148   0.16020   0.16020
 Alpha virt. eigenvalues --    0.17630   0.17630   0.18295   0.21882   0.24001
 Alpha virt. eigenvalues --    0.24001   0.24444   0.24810   0.26527   0.26527
 Alpha virt. eigenvalues --    0.26979   0.27305   0.27305   0.27687   0.27687
 Alpha virt. eigenvalues --    0.29712   0.29712   0.31490   0.31543   0.32463
 Alpha virt. eigenvalues --    0.32463   0.33482   0.33482   0.33773   0.34437
 Alpha virt. eigenvalues --    0.34437   0.36668   0.38162   0.38162   0.39399
 Alpha virt. eigenvalues --    0.40046   0.40046   0.40600   0.43272   0.43561
 Alpha virt. eigenvalues --    0.43561   0.44041   0.44134   0.44638   0.44875
 Alpha virt. eigenvalues --    0.45182   0.46237   0.46237   0.47234   0.47234
 Alpha virt. eigenvalues --    0.48958   0.48958   0.49038   0.49038   0.50516
 Alpha virt. eigenvalues --    0.50516   0.50747   0.52016   0.53306   0.53532
 Alpha virt. eigenvalues --    0.55560   0.55560   0.56116   0.56116   0.56633
 Alpha virt. eigenvalues --    0.56633   0.57441   0.57441   0.57870   0.60028
 Alpha virt. eigenvalues --    0.62022   0.64798   0.64798   0.65641   0.65641
 Alpha virt. eigenvalues --    0.66040   0.66040   0.66829   0.67217   0.67217
 Alpha virt. eigenvalues --    0.68713   0.68713   0.70423   0.70787   0.71254
 Alpha virt. eigenvalues --    0.71254   0.71316   0.72068   0.72068   0.72317
 Alpha virt. eigenvalues --    0.73808   0.73808   0.74136   0.75826   0.75826
 Alpha virt. eigenvalues --    0.76272   0.77778   0.78677   0.78677   0.79880
 Alpha virt. eigenvalues --    0.79880   0.82397   0.82851   0.82851   0.83334
 Alpha virt. eigenvalues --    0.84992   0.85612   0.85612   0.88130   0.88130
 Alpha virt. eigenvalues --    0.88692   0.91394   0.91394   0.93392   0.93392
 Alpha virt. eigenvalues --    0.95937   0.98496   1.08780   1.11148   1.11148
 Alpha virt. eigenvalues --    1.11184   1.11335   1.11335   1.13424   1.16924
 Alpha virt. eigenvalues --    1.16924   1.17642   1.19183   1.19183   1.19470
 Alpha virt. eigenvalues --    1.19548   1.23911   1.23911   1.24722   1.26022
 Alpha virt. eigenvalues --    1.26022   1.30598   1.30598   1.30659   1.35932
 Alpha virt. eigenvalues --    1.37006   1.37006   1.38117   1.38117   1.38985
 Alpha virt. eigenvalues --    1.38985   1.39559   1.39559   1.39609   1.39609
 Alpha virt. eigenvalues --    1.41103   1.43002   1.44960   1.46844   1.46844
 Alpha virt. eigenvalues --    1.47046   1.47602   1.47602   1.47734   1.47734
 Alpha virt. eigenvalues --    1.48583   1.53717   1.57441   1.57441   1.65236
 Alpha virt. eigenvalues --    1.65371   1.67687   1.69472   1.70360   1.73776
 Alpha virt. eigenvalues --    1.73776   1.75716   1.75716   1.75876   1.75876
 Alpha virt. eigenvalues --    1.76337   1.76337   1.81206   1.81424   1.83668
 Alpha virt. eigenvalues --    1.85194   1.85194   1.85991   1.85991   1.89358
 Alpha virt. eigenvalues --    1.89358   1.91229   1.91229   1.91584   1.91728
 Alpha virt. eigenvalues --    1.95281   1.99918   1.99918   2.02739   2.05403
 Alpha virt. eigenvalues --    2.05403   2.06292   2.06292   2.09638   2.09638
 Alpha virt. eigenvalues --    2.09802   2.09802   2.13233   2.13233   2.15420
 Alpha virt. eigenvalues --    2.15476   2.17746   2.19434   2.22917   2.22917
 Alpha virt. eigenvalues --    2.23416   2.24003   2.24003   2.24028   2.25432
 Alpha virt. eigenvalues --    2.25432   2.26091   2.26091   2.28526   2.28526
 Alpha virt. eigenvalues --    2.31841   2.32609   2.35459   2.35459   2.35492
 Alpha virt. eigenvalues --    2.35492   2.41365   2.42846   2.52782   2.52782
 Alpha virt. eigenvalues --    2.55505   2.55505   2.57325   2.57325   2.57976
 Alpha virt. eigenvalues --    2.58559   2.58559   2.59821   2.63638   2.63638
 Alpha virt. eigenvalues --    2.64201   2.64201   2.67612   2.67612   2.70604
 Alpha virt. eigenvalues --    2.72472   2.72935   2.73065   2.74978   2.76813
 Alpha virt. eigenvalues --    2.76813   2.81235   2.81235   2.87179   2.87533
 Alpha virt. eigenvalues --    2.95514   2.95514   2.97120   2.98181   2.98181
 Alpha virt. eigenvalues --    3.11040   3.31522   3.31522   3.39723   3.39723
 Alpha virt. eigenvalues --    3.59357   3.64460
          Condensed to atoms (all electrons):
               1          2          3          4          5          6
     1  C    5.563478   0.155302   0.170901   0.022694  -0.001634   0.000356
     2  C    0.155302   5.563478   0.167680  -0.195771   0.022694  -0.002834
     3  C    0.170901   0.167680   5.526385   0.167680   0.170901  -0.170872
     4  C    0.022694  -0.195771   0.167680   5.563478   0.155302   0.170901
     5  C   -0.001634   0.022694   0.170901   0.155302   5.563478   0.167680
     6  C    0.000356  -0.002834  -0.170872   0.170901   0.167680   5.526385
     7  C    0.000006  -0.000026  -0.002834   0.022694  -0.195771   0.167680
     8  C   -0.000001   0.000006   0.000356  -0.001634   0.022694   0.170901
     9  C   -0.000002   0.000004  -0.000728   0.000356  -0.002834  -0.170872
    10  C    0.000000  -0.000001   0.000004   0.000006  -0.000026  -0.002834
    11  C   -0.000001   0.000000  -0.000002  -0.000001   0.000006   0.000356
    12  C    0.000004  -0.000002   0.000169  -0.000002   0.000004  -0.000728
    13  C    0.000006  -0.000001  -0.000002   0.000000  -0.000001   0.000004
    14  C   -0.000026   0.000006   0.000004  -0.000001   0.000000  -0.000002
    15  C   -0.002834   0.000356  -0.000728   0.000004  -0.000002   0.000169
    16  C    0.022694  -0.001634   0.000356   0.000006  -0.000001  -0.000002
    17  C   -0.195771   0.022694  -0.002834  -0.000026   0.000006   0.000004
    18  C    0.167680   0.170901  -0.170872  -0.002834   0.000356  -0.000728
    19  C    0.068217  -0.182315  -0.016006   0.041149  -0.008254   0.028142
    20  C   -0.182315   0.068217   0.066616   0.068217  -0.182315  -0.016006
    21  C   -0.008254   0.041149  -0.016006  -0.182315   0.068217   0.066616
    22  C   -0.000386   0.000567   0.028142  -0.008254   0.041149  -0.016006
    23  C    0.000567  -0.000386  -0.000744  -0.000386   0.000567   0.028142
    24  C    0.041149  -0.008254   0.028142   0.000567  -0.000386  -0.000744
    25  H    0.439095  -0.080533   0.016145  -0.000549   0.000013  -0.000001
    26  H   -0.080533   0.439095  -0.082767  -0.021497   0.000788  -0.000066
    27  H    0.000788  -0.021497  -0.082767   0.439095  -0.080533   0.016145
    28  H    0.000013  -0.000549   0.016145  -0.080533   0.439095  -0.082767
    29  H    0.000000  -0.000002  -0.000066   0.000788  -0.021497  -0.082767
    30  H    0.000000  -0.000000  -0.000001   0.000013  -0.000549   0.016145
    31  H    0.000000   0.000000  -0.000000   0.000000  -0.000002  -0.000066
    32  H    0.000000   0.000000  -0.000000   0.000000  -0.000000  -0.000001
    33  H   -0.000000   0.000000  -0.000000   0.000000   0.000000  -0.000000
    34  H   -0.000002   0.000000  -0.000000   0.000000   0.000000  -0.000000
    35  H   -0.000549   0.000013  -0.000001  -0.000000   0.000000  -0.000000
    36  H   -0.021497   0.000788  -0.000066  -0.000002   0.000000  -0.000000
               7          8          9         10         11         12
     1  C    0.000006  -0.000001  -0.000002   0.000000  -0.000001   0.000004
     2  C   -0.000026   0.000006   0.000004  -0.000001   0.000000  -0.000002
     3  C   -0.002834   0.000356  -0.000728   0.000004  -0.000002   0.000169
     4  C    0.022694  -0.001634   0.000356   0.000006  -0.000001  -0.000002
     5  C   -0.195771   0.022694  -0.002834  -0.000026   0.000006   0.000004
     6  C    0.167680   0.170901  -0.170872  -0.002834   0.000356  -0.000728
     7  C    5.563478   0.155302   0.170901   0.022694  -0.001634   0.000356
     8  C    0.155302   5.563478   0.167680  -0.195771   0.022694  -0.002834
     9  C    0.170901   0.167680   5.526385   0.167680   0.170901  -0.170872
    10  C    0.022694  -0.195771   0.167680   5.563478   0.155302   0.170901
    11  C   -0.001634   0.022694   0.170901   0.155302   5.563478   0.167680
    12  C    0.000356  -0.002834  -0.170872   0.170901   0.167680   5.526385
    13  C    0.000006  -0.000026  -0.002834   0.022694  -0.195771   0.167680
    14  C   -0.000001   0.000006   0.000356  -0.001634   0.022694   0.170901
    15  C   -0.000002   0.000004  -0.000728   0.000356  -0.002834  -0.170872
    16  C    0.000000  -0.000001   0.000004   0.000006  -0.000026  -0.002834
    17  C   -0.000001   0.000000  -0.000002  -0.000001   0.000006   0.000356
    18  C    0.000004  -0.000002   0.000169  -0.000002   0.000004  -0.000728
    19  C    0.000567  -0.000386  -0.000744  -0.000386   0.000567   0.028142
    20  C    0.041149  -0.008254   0.028142   0.000567  -0.000386  -0.000744
    21  C    0.068217  -0.182315  -0.016006   0.041149  -0.008254   0.028142
    22  C   -0.182315   0.068217   0.066616   0.068217  -0.182315  -0.016006
    23  C   -0.008254   0.041149  -0.016006  -0.182315   0.068217   0.066616
    24  C   -0.000386   0.000567   0.028142  -0.008254   0.041149  -0.016006
    25  H   -0.000000   0.000000  -0.000000   0.000000   0.000000  -0.000000
    26  H   -0.000002   0.000000  -0.000000   0.000000   0.000000  -0.000000
    27  H   -0.000549   0.000013  -0.000001  -0.000000   0.000000  -0.000000
    28  H   -0.021497   0.000788  -0.000066  -0.000002   0.000000  -0.000000
    29  H    0.439095  -0.080533   0.016145  -0.000549   0.000013  -0.000001
    30  H   -0.080533   0.439095  -0.082767  -0.021497   0.000788  -0.000066
    31  H    0.000788  -0.021497  -0.082767   0.439095  -0.080533   0.016145
    32  H    0.000013  -0.000549   0.016145  -0.080533   0.439095  -0.082767
    33  H    0.000000  -0.000002  -0.000066   0.000788  -0.021497  -0.082767
    34  H    0.000000  -0.000000  -0.000001   0.000013  -0.000549   0.016145
    35  H    0.000000   0.000000  -0.000000   0.000000  -0.000002  -0.000066
    36  H    0.000000   0.000000  -0.000000   0.000000  -0.000000  -0.000001
              13         14         15         16         17         18
     1  C    0.000006  -0.000026  -0.002834   0.022694  -0.195771   0.167680
     2  C   -0.000001   0.000006   0.000356  -0.001634   0.022694   0.170901
     3  C   -0.000002   0.000004  -0.000728   0.000356  -0.002834  -0.170872
     4  C    0.000000  -0.000001   0.000004   0.000006  -0.000026  -0.002834
     5  C   -0.000001   0.000000  -0.000002  -0.000001   0.000006   0.000356
     6  C    0.000004  -0.000002   0.000169  -0.000002   0.000004  -0.000728
     7  C    0.000006  -0.000001  -0.000002   0.000000  -0.000001   0.000004
     8  C   -0.000026   0.000006   0.000004  -0.000001   0.000000  -0.000002
     9  C   -0.002834   0.000356  -0.000728   0.000004  -0.000002   0.000169
    10  C    0.022694  -0.001634   0.000356   0.000006  -0.000001  -0.000002
    11  C   -0.195771   0.022694  -0.002834  -0.000026   0.000006   0.000004
    12  C    0.167680   0.170901  -0.170872  -0.002834   0.000356  -0.000728
    13  C    5.563478   0.155302   0.170901   0.022694  -0.001634   0.000356
    14  C    0.155302   5.563478   0.167680  -0.195771   0.022694  -0.002834
    15  C    0.170901   0.167680   5.526385   0.167680   0.170901  -0.170872
    16  C    0.022694  -0.195771   0.167680   5.563478   0.155302   0.170901
    17  C   -0.001634   0.022694   0.170901   0.155302   5.563478   0.167680
    18  C    0.000356  -0.002834  -0.170872   0.170901   0.167680   5.526385
    19  C   -0.008254   0.041149  -0.016006  -0.182315   0.068217   0.066616
    20  C   -0.000386   0.000567   0.028142  -0.008254   0.041149  -0.016006
    21  C    0.000567  -0.000386  -0.000744  -0.000386   0.000567   0.028142
    22  C    0.041149  -0.008254   0.028142   0.000567  -0.000386  -0.000744
    23  C    0.068217  -0.182315  -0.016006   0.041149  -0.008254   0.028142
    24  C   -0.182315   0.068217   0.066616   0.068217  -0.182315  -0.016006
    25  H    0.000000  -0.000002  -0.000066   0.000788  -0.021497  -0.082767
    26  H    0.000000  -0.000000  -0.000001   0.000013  -0.000549   0.016145
    27  H    0.000000   0.000000  -0.000000   0.000000  -0.000002  -0.000066
    28  H    0.000000   0.000000  -0.000000   0.000000  -0.000000  -0.000001
    29  H   -0.000000   0.000000  -0.000000   0.000000   0.000000  -0.000000
    30  H   -0.000002   0.000000  -0.000000   0.000000   0.000000  -0.000000
    31  H   -0.000549   0.000013  -0.000001  -0.000000   0.000000  -0.000000
    32  H   -0.021497   0.000788  -0.000066  -0.000002   0.000000  -0.000000
    33  H    0.439095  -0.080533   0.016145  -0.000549   0.000013  -0.000001
    34  H   -0.080533   0.439095  -0.082767  -0.021497   0.000788  -0.000066
    35  H    0.000788  -0.021497  -0.082767   0.439095  -0.080533   0.016145
    36  H    0.000013  -0.000549   0.016145  -0.080533   0.439095  -0.082767
              19         20         21         22         23         24
     1  C    0.068217  -0.182315  -0.008254  -0.000386   0.000567   0.041149
     2  C   -0.182315   0.068217   0.041149   0.000567  -0.000386  -0.008254
     3  C   -0.016006   0.066616  -0.016006   0.028142  -0.000744   0.028142
     4  C    0.041149   0.068217  -0.182315  -0.008254  -0.000386   0.000567
     5  C   -0.008254  -0.182315   0.068217   0.041149   0.000567  -0.000386
     6  C    0.028142  -0.016006   0.066616  -0.016006   0.028142  -0.000744
     7  C    0.000567   0.041149   0.068217  -0.182315  -0.008254  -0.000386
     8  C   -0.000386  -0.008254  -0.182315   0.068217   0.041149   0.000567
     9  C   -0.000744   0.028142  -0.016006   0.066616  -0.016006   0.028142
    10  C   -0.000386   0.000567   0.041149   0.068217  -0.182315  -0.008254
    11  C    0.000567  -0.000386  -0.008254  -0.182315   0.068217   0.041149
    12  C    0.028142  -0.000744   0.028142  -0.016006   0.066616  -0.016006
    13  C   -0.008254  -0.000386   0.000567   0.041149   0.068217  -0.182315
    14  C    0.041149   0.000567  -0.000386  -0.008254  -0.182315   0.068217
    15  C   -0.016006   0.028142  -0.000744   0.028142  -0.016006   0.066616
    16  C   -0.182315  -0.008254  -0.000386   0.000567   0.041149   0.068217
    17  C    0.068217   0.041149   0.000567  -0.000386  -0.008254  -0.182315
    18  C    0.066616  -0.016006   0.028142  -0.000744   0.028142  -0.016006
    19  C    5.980085   0.145380  -0.069351  -0.146758  -0.069351   0.145380
    20  C    0.145380   5.980085   0.145380  -0.069351  -0.146758  -0.069351
    21  C   -0.069351   0.145380   5.980085   0.145380  -0.069351  -0.146758
    22  C   -0.146758  -0.069351   0.145380   5.980085   0.145380  -0.069351
    23  C   -0.069351  -0.146758  -0.069351   0.145380   5.980085   0.145380
    24  C    0.145380  -0.069351  -0.146758  -0.069351   0.145380   5.980085
    25  H    0.017847  -0.001620   0.000068  -0.000001   0.000014  -0.000324
    26  H   -0.001620   0.017847  -0.000324   0.000014  -0.000001   0.000068
    27  H   -0.000324   0.017847  -0.001620   0.000068  -0.000001   0.000014
    28  H    0.000068  -0.001620   0.017847  -0.000324   0.000014  -0.000001
    29  H    0.000014  -0.000324   0.017847  -0.001620   0.000068  -0.000001
    30  H   -0.000001   0.000068  -0.001620   0.017847  -0.000324   0.000014
    31  H   -0.000001   0.000014  -0.000324   0.017847  -0.001620   0.000068
    32  H    0.000014  -0.000001   0.000068  -0.001620   0.017847  -0.000324
    33  H    0.000068  -0.000001   0.000014  -0.000324   0.017847  -0.001620
    34  H   -0.000324   0.000014  -0.000001   0.000068  -0.001620   0.017847
    35  H   -0.001620   0.000068  -0.000001   0.000014  -0.000324   0.017847
    36  H    0.017847  -0.000324   0.000014  -0.000001   0.000068  -0.001620
              25         26         27         28         29         30
     1  C    0.439095  -0.080533   0.000788   0.000013   0.000000   0.000000
     2  C   -0.080533   0.439095  -0.021497  -0.000549  -0.000002  -0.000000
     3  C    0.016145  -0.082767  -0.082767   0.016145  -0.000066  -0.000001
     4  C   -0.000549  -0.021497   0.439095  -0.080533   0.000788   0.000013
     5  C    0.000013   0.000788  -0.080533   0.439095  -0.021497  -0.000549
     6  C   -0.000001  -0.000066   0.016145  -0.082767  -0.082767   0.016145
     7  C   -0.000000  -0.000002  -0.000549  -0.021497   0.439095  -0.080533
     8  C    0.000000   0.000000   0.000013   0.000788  -0.080533   0.439095
     9  C   -0.000000  -0.000000  -0.000001  -0.000066   0.016145  -0.082767
    10  C    0.000000   0.000000  -0.000000  -0.000002  -0.000549  -0.021497
    11  C    0.000000   0.000000   0.000000   0.000000   0.000013   0.000788
    12  C   -0.000000  -0.000000  -0.000000  -0.000000  -0.000001  -0.000066
    13  C    0.000000   0.000000   0.000000   0.000000  -0.000000  -0.000002
    14  C   -0.000002  -0.000000   0.000000   0.000000   0.000000   0.000000
    15  C   -0.000066  -0.000001  -0.000000  -0.000000  -0.000000  -0.000000
    16  C    0.000788   0.000013   0.000000   0.000000   0.000000   0.000000
    17  C   -0.021497  -0.000549  -0.000002  -0.000000   0.000000   0.000000
    18  C   -0.082767   0.016145  -0.000066  -0.000001  -0.000000  -0.000000
    19  C    0.017847  -0.001620  -0.000324   0.000068   0.000014  -0.000001
    20  C   -0.001620   0.017847   0.017847  -0.001620  -0.000324   0.000068
    21  C    0.000068  -0.000324  -0.001620   0.017847   0.017847  -0.001620
    22  C   -0.000001   0.000014   0.000068  -0.000324  -0.001620   0.017847
    23  C    0.000014  -0.000001  -0.000001   0.000014   0.000068  -0.000324
    24  C   -0.000324   0.000068   0.000014  -0.000001  -0.000001   0.000014
    25  H    0.681021  -0.012555  -0.000016  -0.000000  -0.000000   0.000000
    26  H   -0.012555   0.681021   0.006916  -0.000016  -0.000000  -0.000000
    27  H   -0.000016   0.006916   0.681021  -0.012555  -0.000016  -0.000000
    28  H   -0.000000  -0.000016  -0.012555   0.681021   0.006916  -0.000016
    29  H   -0.000000  -0.000000  -0.000016   0.006916   0.681021  -0.012555
    30  H    0.000000  -0.000000  -0.000000  -0.000016  -0.012555   0.681021
    31  H    0.000000  -0.000000  -0.000000  -0.000000  -0.000016   0.006916
    32  H   -0.000000   0.000000   0.000000  -0.000000  -0.000000  -0.000016
    33  H   -0.000000   0.000000   0.000000  -0.000000  -0.000000  -0.000000
    34  H   -0.000000  -0.000000  -0.000000   0.000000   0.000000  -0.000000
    35  H   -0.000016  -0.000000  -0.000000   0.000000   0.000000  -0.000000
    36  H    0.006916  -0.000016  -0.000000  -0.000000  -0.000000   0.000000
              31         32         33         34         35         36
     1  C    0.000000   0.000000  -0.000000  -0.000002  -0.000549  -0.021497
     2  C    0.000000   0.000000   0.000000   0.000000   0.000013   0.000788
     3  C   -0.000000  -0.000000  -0.000000  -0.000000  -0.000001  -0.000066
     4  C    0.000000   0.000000   0.000000   0.000000  -0.000000  -0.000002
     5  C   -0.000002  -0.000000   0.000000   0.000000   0.000000   0.000000
     6  C   -0.000066  -0.000001  -0.000000  -0.000000  -0.000000  -0.000000
     7  C    0.000788   0.000013   0.000000   0.000000   0.000000   0.000000
     8  C   -0.021497  -0.000549  -0.000002  -0.000000   0.000000   0.000000
     9  C   -0.082767   0.016145  -0.000066  -0.000001  -0.000000  -0.000000
    10  C    0.439095  -0.080533   0.000788   0.000013   0.000000   0.000000
    11  C   -0.080533   0.439095  -0.021497  -0.000549  -0.000002  -0.000000
    12  C    0.016145  -0.082767  -0.082767   0.016145  -0.000066  -0.000001
    13  C   -0.000549  -0.021497   0.439095  -0.080533   0.000788   0.000013
    14  C    0.000013   0.000788  -0.080533   0.439095  -0.021497  -0.000549
    15  C   -0.000001  -0.000066   0.016145  -0.082767  -0.082767   0.016145
    16  C   -0.000000  -0.000002  -0.000549  -0.021497   0.439095  -0.080533
    17  C    0.000000   0.000000   0.000013   0.000788  -0.080533   0.439095
    18  C   -0.000000  -0.000000  -0.000001  -0.000066   0.016145  -0.082767
    19  C   -0.000001   0.000014   0.000068  -0.000324  -0.001620   0.017847
    20  C    0.000014  -0.000001  -0.000001   0.000014   0.000068  -0.000324
    21  C   -0.000324   0.000068   0.000014  -0.000001  -0.000001   0.000014
    22  C    0.017847  -0.001620  -0.000324   0.000068   0.000014  -0.000001
    23  C   -0.001620   0.017847   0.017847  -0.001620  -0.000324   0.000068
    24  C    0.000068  -0.000324  -0.001620   0.017847   0.017847  -0.001620
    25  H    0.000000  -0.000000  -0.000000  -0.000000  -0.000016   0.006916
    26  H   -0.000000   0.000000   0.000000  -0.000000  -0.000000  -0.000016
    27  H   -0.000000   0.000000   0.000000  -0.000000  -0.000000  -0.000000
    28  H   -0.000000  -0.000000  -0.000000   0.000000   0.000000  -0.000000
    29  H   -0.000016  -0.000000  -0.000000   0.000000   0.000000  -0.000000
    30  H    0.006916  -0.000016  -0.000000  -0.000000  -0.000000   0.000000
    31  H    0.681021  -0.012555  -0.000016  -0.000000  -0.000000   0.000000
    32  H   -0.012555   0.681021   0.006916  -0.000016  -0.000000  -0.000000
    33  H   -0.000016   0.006916   0.681021  -0.012555  -0.000016  -0.000000
    34  H   -0.000000  -0.000016  -0.012555   0.681021   0.006916  -0.000016
    35  H   -0.000000  -0.000000  -0.000016   0.006916   0.681021  -0.012555
    36  H    0.000000  -0.000000  -0.000000  -0.000016  -0.012555   0.681021
 Mulliken charges:
               1
     1  C   -0.159147
     2  C   -0.159147
     3  C    0.187669
     4  C   -0.159147
     5  C   -0.159147
     6  C    0.187669
     7  C   -0.159147
     8  C   -0.159147
     9  C    0.187669
    10  C   -0.159147
    11  C   -0.159147
    12  C    0.187669
    13  C   -0.159147
    14  C   -0.159147
    15  C    0.187669
    16  C   -0.159147
    17  C   -0.159147
    18  C    0.187669
    19  C    0.054548
    20  C    0.054548
    21  C    0.054548
    22  C    0.054548
    23  C    0.054548
    24  C    0.054548
    25  H    0.038038
    26  H    0.038038
    27  H    0.038038
    28  H    0.038038
    29  H    0.038038
    30  H    0.038038
    31  H    0.038038
    32  H    0.038038
    33  H    0.038038
    34  H    0.038038
    35  H    0.038038
    36  H    0.038038
 Sum of Mulliken charges =   0.00000
 Mulliken charges with hydrogens summed into heavy atoms:
               1
     1  C   -0.121109
     2  C   -0.121109
     3  C    0.187669
     4  C   -0.121109
     5  C   -0.121109
     6  C    0.187669
     7  C   -0.121109
     8  C   -0.121109
     9  C    0.187669
    10  C   -0.121109
    11  C   -0.121109
    12  C    0.187669
    13  C   -0.121109
    14  C   -0.121109
    15  C    0.187669
    16  C   -0.121109
    17  C   -0.121109
    18  C    0.187669
    19  C    0.054548
    20  C    0.054548
    21  C    0.054548
    22  C    0.054548
    23  C    0.054548
    24  C    0.054548
 Electronic spatial extent (au):  <R**2>=           6099.0146
 Charge=              0.0000 electrons
 Dipole moment (field-independent basis, Debye):
    X=             -0.0000    Y=              0.0000    Z=              0.0000  Tot=              0.0000
 Quadrupole moment (field-independent basis, Debye-Ang):
   XX=           -119.3157   YY=           -119.3157   ZZ=           -143.3913
   XY=              0.0000   XZ=             -0.0000   YZ=             -0.0000
 Traceless Quadrupole moment (field-independent basis, Debye-Ang):
   XX=              8.0252   YY=              8.0252   ZZ=            -16.0504
   XY=              0.0000   XZ=             -0.0000   YZ=             -0.0000
 Octapole moment (field-independent basis, Debye-Ang**2):
  XXX=             -0.0000  YYY=              0.0000  ZZZ=              0.0000  XYY=             -0.0000
  XXY=              0.0000  XXZ=              0.0000  XZZ=              0.0000  YZZ=              0.0000
  YYZ=              0.0000  XYZ=             -0.0000
 Hexadecapole moment (field-independent basis, Debye-Ang**3):
 XXXX=          -3850.7093 YYYY=          -3850.7093 ZZZZ=           -158.1923 XXXY=             -0.0000
 XXXZ=             -0.0000 YYYX=             -0.0000 YYYZ=             -0.0000 ZZZX=             -0.0000
 ZZZY=             -0.0000 XXYY=          -1283.5698 XXZZ=           -799.1787 YYZZ=           -799.1787
 XXYZ=             -0.0000 YYXZ=             -0.0000 ZZXY=             -0.0000
 N-N= 1.842711595532D+03 E-N=-5.817406345959D+03  KE= 9.120469367785D+02
 Symmetry AG   KE= 2.572339630489D+02
 Symmetry B1G  KE= 1.856691645263D+02
 Symmetry B2G  KE= 6.426137315744D+00
 Symmetry B3G  KE= 6.534221134881D+00
 Symmetry AU   KE= 4.502810601981D+00
 Symmetry B1U  KE= 8.343656343148D+00
 Symmetry B2U  KE= 2.520402545189D+02
 Symmetry B3U  KE= 1.912967292887D+02
  24 Symmetry operations used in ECPInt.
 ECPInt:  NShTT=   14196 NPrTT=   56964 LenC2=   13402 LenP2D=   36540.
 LDataN:  DoStor=T MaxTD1= 5 Len=  102
 Calling FoFJK, ICntrl=      2127 FMM=F ISym2X=1 I1Cent= 0 IOpClX= 0 NMat=1 NMatS=1 NMatT=0.
 ***** Axes restored to original set *****
 -------------------------------------------------------------------
 Center     Atomic                   Forces (Hartrees/Bohr)
 Number     Number              X              Y              Z
 -------------------------------------------------------------------
      1        6           0.025367364    0.024935891   -0.000948503
      2        6          -0.003082631   -0.035400519    0.001871398
      3        6           0.001950389    0.000164410    0.000022166
      4        6          -0.008921486    0.034388620   -0.002007823
      5        6           0.029155324   -0.020339849    0.001568143
      6        6           0.000834078    0.001768903   -0.000082672
      7        6          -0.034288850    0.009452730   -0.001059320
      8        6           0.032237955    0.015060669   -0.000303255
      9        6          -0.001116311    0.001604493   -0.000104838
     10        6          -0.025367364   -0.024935891    0.000948503
     11        6           0.003082631    0.035400519   -0.001871398
     12        6          -0.001950389   -0.000164410   -0.000022166
     13        6           0.008921486   -0.034388620    0.002007823
     14        6          -0.029155324    0.020339849   -0.001568143
     15        6          -0.000834078   -0.001768903    0.000082672
     16        6           0.034288850   -0.009452730    0.001059320
     17        6          -0.032237955   -0.015060669    0.000303255
     18        6           0.001116311   -0.001604493    0.000104838
     19        6          -0.000853325    0.001226500   -0.000080140
     20        6          -0.001490908   -0.000125677   -0.000016944
     21        6          -0.000637582   -0.001352177    0.000063196
     22        6           0.000853325   -0.001226500    0.000080140
     23        6           0.001490908    0.000125677    0.000016944
[...]
 13826,-0.00000549,-0.00000856,-0.00009583,0.00000794,0.00003636,0.0002
 9385,-0.00009946,0.00015922,0.00445083,0.00002845,-0.00003777,-0.00022
 740,0.00001374,-0.00005226,-0.00091121,-0.00000047,0.00000100,0.000008
 87,-0.00000070,0.00000025,0.00000461,-0.00000052,-0.00000008,-0.000002
 45,-0.00000088,-0.00000018,0.00001034,-0.00000563,0.00000713,0.0001511
 1,-0.00002843,-0.00002300,0.00016263,0.00956717,-0.01481428,0.02655700
 ,0.00001114,0.00004922,-0.00000148,0.00000919,-0.00003366,0.00000192,-
 0.00003900,0.00001846,-0.00000199,0.00000555,0.00002026,-0.00000097,0.
 00000942,-0.00001363,0.00000004,0.00000746,-0.00000135,-0.00000226,-0.
 00001259,-0.00026838,0.00002347,-0.00053771,0.00034493,-0.00003138,0.0
 0140517,-0.00232479,0.00001421,-0.00946170,0.00139006,-0.00029920,-0.3
 3238021,-0.02315627,-0.00343376,-0.01414297,-0.00373897,-0.00008286,0.
 00072074,-0.00210607,0.00017244,0.00006742,0.00039554,-0.00001881,0.00
 025626,-0.00007865,0.00000846,0.00000847,0.00000970,-0.00000068,0.0000
 2372,0.00005347,-0.00000265,-0.00009192,-0.00007775,0.00000286,-0.0000
 6154,0.00029090,-0.00001523,0.00002355,0.00000970,-0.00000236,0.000002
 93,-0.00000847,0.00001508,0.00068111,0.00026228,0.00000029,0.00014368,
 0.00327014,-0.00024622,-0.00064328,-0.00071774,0.00002397,-0.00001356,
 0.00000763,-0.00000070,-0.00001102,-0.00000181,-0.00000022,-0.00001168
 ,0.00000047,-0.00000014,-0.00000303,-0.00000923,0.00000049,-0.00006463
 ,-0.00000195,-0.00000029,0.00002637,-0.00002760,-0.00000050,0.00094557
 ,-0.00017975,0.00010787,0.35265992,0.00003145,-0.00002180,-0.00000177,
 0.00001340,-0.00001952,0.00000147,0.00003777,0.00008669,-0.00000284,-0
 .00000013,-0.00011653,0.00000619,-0.00009499,0.00009247,-0.00000363,0.
 00018879,-0.00013646,0.00001876,-0.00025105,-0.00033379,-0.00001690,-0
 .00105742,0.00064455,-0.00003787,-0.00097656,-0.00489519,0.00070719,-0
 .03004901,0.00185543,-0.00033113,-0.02265943,-0.06002524,0.00082761,0.
 02539306,0.00542631,0.00031556,0.00151350,0.00134956,-0.00020803,-0.00
 034733,0.00007430,-0.00001491,0.00017949,0.00013257,-0.00000469,-0.000
 16992,0.00002013,-0.00000281,0.00008333,0.00003347,-0.00000004,0.00007
 065,0.00000777,0.00000035,0.00005903,-0.00033928,0.00001413,-0.0001153
 7,-0.00004789,0.00000829,0.00006872,0.00012647,-0.00005537,0.00000160,
 -0.00074178,0.00002780,0.00168910,-0.00427711,0.00050098,0.00115375,0.
 00065253,-0.00000097,0.00001354,0.00000399,0.00000025,-0.00000181,0.00
 000069,0.00000042,-0.00000322,0.00000459,-0.00000056,0.00000457,-0.000
 00304,0.00000010,-0.00013690,-0.00001300,-0.00000363,0.00004008,-0.000
 02381,0.00001015,0.00051174,0.00119439,-0.00033934,0.02560525,0.059651
 53,-0.00000051,-0.00000149,-0.00006364,-0.00000064,0.00000072,0.000003
 52,-0.00000304,-0.00000314,0.00002345,0.00000013,0.00000651,-0.0000027
 5,0.00000445,-0.00000233,0.00005368,-0.00001258,0.00001573,0.00015287,
 0.00002253,-0.00001718,-0.00057033,0.00004470,-0.00001552,0.00025872,-
 0.00005894,0.00068571,0.00838905,0.00140641,0.00016994,0.00459276,-0.0
 0346072,0.00081969,-0.03821285,-0.00166331,-0.00014875,0.00376443,-0.0
 0002393,-0.00026572,-0.00291566,0.00002149,-0.00000307,-0.00009796,-0.
 00000555,-0.00000881,-0.00000624,0.00000906,0.00000005,0.00001830,-0.0
 0000428,-0.00000051,0.00000824,-0.00000519,-0.00000201,-0.00000647,-0.
 00000265,0.00001782,-0.00009722,0.00000442,0.00001028,0.00013829,0.000
 01089,-0.00005660,-0.00091102,0.00001443,0.00003195,-0.00023141,-0.000
 16045,0.00052618,0.00442995,-0.00007756,-0.00003080,0.00029613,-0.0000
 0102,0.00000016,0.00000461,-0.00000022,0.00000042,0.00000890,0.0000000
 6,-0.00000050,-0.00000472,-0.00000026,-0.00000012,-0.00000245,0.000007
 03,-0.00000148,-0.00003948,-0.00000417,0.00000908,0.00015102,0.0000703
 6,-0.00035036,-0.00519068,0.00382354,-0.00143920,0.02573984,-0.0000060
 8,-0.00000306,-0.00000078,0.00000548,0.00000031,0.00000011,-0.00002630
 ,-0.00003757,0.00000125,0.00000508,0.00003781,-0.00000203,0.00002343,-
 0.00004149,0.00000364,-0.00009032,0.00006112,-0.00000465,0.00004639,-0
 .00005124,0.00000339,-0.00001745,-0.00001608,0.00000030,0.00026931,0.0
 0010205,-0.00000114,0.00007547,-0.00039512,0.00002421,0.00064026,0.001
 99109,-0.00005112,-0.01005138,0.00111194,-0.00028082,-0.33230564,-0.02
 310192,-0.00343552,-0.01384150,-0.00405870,-0.00007340,0.00069184,0.00
 325646,-0.00029995,-0.00062163,-0.00055942,0.00001634,-0.00010668,0.00
 030724,-0.00000926,0.00003422,0.00002996,-0.00000353,0.00001602,-0.000
 00896,0.00001531,0.00000429,-0.00000107,-0.00000209,-0.00001189,-0.000
 23562,0.00001413,-0.00053588,0.00051642,-0.00004127,0.00083500,-0.0024
 1328,0.00007313,0.00068487,-0.00002070,0.00001570,-0.00000379,0.000009
 10,-0.00000052,-0.00001168,-0.00000322,0.00000006,-0.00001129,-0.00000
 024,-0.00000031,-0.00000960,-0.00000994,0.00000031,-0.00000456,-0.0000
 0866,0.00000044,0.00000336,-0.00002333,0.00000115,-0.00000999,-0.00005
 762,0.00000055,0.00049205,-0.00078553,0.00004788,0.35289215,0.00007831
 ,0.00010808,-0.00000171,0.00002070,-0.00011646,0.00000652,-0.00005687,
 0.00007390,-0.00000365,-0.00000926,-0.00001537,0.00000088,-0.00002372,
 -0.00003419,-0.00000198,-0.00008729,0.00000615,-0.00000208,-0.00008111
 ,0.00001062,-0.00000142,0.00016355,0.00004625,0.00000108,-0.00015610,0
 .00011942,-0.00000933,0.00034775,0.00006619,-0.00000339,-0.00162849,0.
 00143065,-0.00026251,-0.02801887,0.00130323,-0.00031204,-0.02359876,-0
 .06010037,0.00081672,0.02738037,0.00626831,0.00034477,0.00190823,-0.00
 417647,0.00071418,0.00084293,0.00072911,-0.00001217,0.00028992,-0.0002
 3900,-0.00001342,-0.00016017,-0.00016343,0.00001466,-0.00008615,0.0001
 1328,-0.00005712,0.00012399,-0.00002849,0.00001105,-0.00000375,-0.0003
 8931,0.00001584,-0.00135508,0.00054432,-0.00003509,-0.00083224,-0.0049
 7365,0.00049858,0.00023997,-0.00074557,0.00003180,-0.00000470,-0.00000
 227,-0.00000008,0.00000047,0.00000459,-0.00000050,-0.00000024,0.000000
 96,0.00000043,-0.00001585,0.,0.,0.00000514,-0.00000151,0.00000003,-0.0
 0000722,-0.00002183,0.00000163,0.00001006,0.00001240,0.00000771,0.0009
 3041,-0.00036520,0.00004342,0.02422720,0.05941755,-0.00000520,-0.00000
 301,0.00005357,-0.00000100,0.00000619,-0.00000275,0.00000229,-0.000003
 34,0.00002355,0.00000053,0.00000163,0.00000349,0.00000268,-0.00000226,
 -0.00006355,0.00000340,0.00000029,-0.00000646,0.00000501,-0.00000094,0
 .00000841,-0.00000944,-0.00000178,0.00001811,0.00001287,-0.00000521,-0
 .00000614,-0.00001609,-0.00001523,-0.00009790,0.00014525,-0.00020482,-
 0.00291627,0.00129957,0.00015225,0.00379537,-0.00340857,0.00082464,-0.
 03821229,-0.00177902,-0.00015630,0.00455969,-0.00022681,0.00073567,0.0
 0838366,-0.00005974,-0.00003452,0.00025809,-0.00000832,-0.00001315,-0.
 00057104,0.00000678,0.00001769,0.00015308,0.00001950,-0.00005589,-0.00
 091092,-0.00000887,0.00000906,0.00013815,0.00000155,0.00001215,-0.0000
 9684,0.00006026,-0.00000526,0.00029694,-0.00001264,0.00047338,0.004435
 17,0.00000156,0.00002765,-0.00023138,0.00000023,0.00000014,-0.00000245
 ,-0.00000014,-0.00000056,-0.00000472,-0.00000031,0.00000043,0.00000890
 ,0.00000063,0.00000009,0.00000464,-0.00000031,-0.00000019,-0.00000244,
 0.00000028,0.00000137,0.00001028,-0.00000312,0.00000663,0.00015117,-0.
 00004521,0.00001607,0.00016024,0.00390201,-0.00144847,0.02574159,0.000
 08679,0.00012482,-0.00000568,-0.00002831,-0.00005336,0.00000231,-0.000
 01411,-0.00011560,0.00000615,-0.00004846,0.00000298,0.00000008,-0.0000
 0359,-0.00000604,0.00000021,0.00003093,-0.00007813,0.00000436,-0.00009
 498,0.00005802,-0.00000462,0.00011892,0.00003187,-0.00000069,-0.000182
 57,-0.00007963,-0.00000104,-0.00002703,0.00026033,-0.00000544,0.000658
 57,0.00036734,-0.00001353,-0.00191863,0.00287802,-0.00032103,0.0114551
 0,0.01798272,-0.00086601,-0.10848321,-0.10674846,0.00466970,-0.0088801
 4,-0.02845398,0.00134185,0.00146104,-0.00193341,0.00017487,0.00005212,
 0.00035642,-0.00001694,0.00012018,-0.00010069,0.00000748,0.00013926,-0
 .00160589,0.00008463,-0.00042226,0.00014870,-0.00001326,0.00001539,0.0
 0011987,-0.00000847,0.00007221,-0.00010702,0.00002153,-0.00050100,0.00
 068052,-0.00004124,-0.00534628,0.00146410,-0.00023574,-0.00002881,0.00
 000474,-0.00000088,-0.00000303,0.00000457,-0.00000026,-0.00000960,-0.0
 0001585,0.00000063,-0.00000070,-0.00000417,0.00000007,0.00000173,-0.00
 000451,0.00000035,-0.00000101,-0.00000573,0.00000033,0.00003442,0.0000
 7983,-0.00000315,-0.00001713,-0.00001525,-0.00000186,0.00100555,-0.000
 53565,0.00012814,0.11097921,-0.00005481,-0.00005777,0.00000325,-0.0000
 2349,0.00008517,-0.00000455,0.00003281,-0.00006991,0.00000396,-0.00001
 478,0.00003755,-0.00000573,0.00004103,-0.00000672,0.00000121,-0.000058
 83,0.00001679,-0.00000058,0.00003763,-0.00001621,0.00000135,-0.0000494
 9,-0.00001666,0.00000302,0.00011052,0.00005293,0.00000724,0.00027765,-
 0.00031848,-0.00000931,-0.00103501,-0.00054848,0.00002721,0.00422624,-
 0.00157132,0.00060979,-0.01345635,-0.01897667,0.00106349,-0.10625163,-
 0.28346604,0.01161731,0.00067682,0.00013438,0.00020873,0.00168617,0.00
 061155,-0.00016524,-0.00038645,0.00008950,-0.00001636,0.00015750,0.000
 26829,-0.00001240,0.00026560,-0.00012945,0.00002730,-0.00008317,0.0000
 2023,-0.00000764,-0.00000520,-0.00003957,0.00000959,-0.00002983,0.0000
 5721,-0.00005318,0.00041985,0.00043788,-0.00002954,-0.00011694,0.00119
 502,0.00017532,-0.00001137,0.00001028,-0.00000018,-0.00000923,-0.00000
 304,-0.00000012,-0.00000994,0.,0.00000009,-0.00000417,-0.00000961,0.00
 000094,-0.00000820,-0.00000880,0.00000009,0.00000807,-0.00000504,0.000
 00027,-0.00005512,-0.00011165,0.00000303,0.00005243,0.00001959,0.00000
 800,0.00015584,0.00113396,-0.00034173,0.11409750,0.30083681,0.00000407
 ,0.00000611,0.00001789,0.00000069,-0.00000502,0.00000856,-0.00000190,0
 .00000160,-0.00000662,0.00000105,-0.00000545,-0.00006340,-0.00000234,0
 .00000046,0.00000350,0.00000331,-0.00000089,0.00002343,-0.00000352,0.0
 0000167,-0.00000255,0.00000373,0.00000431,0.00005331,-0.00001136,0.000
 00421,0.00015352,-0.00000638,-0.00000958,-0.00057120,0.00006255,0.0000
 4956,0.00025547,-0.00039417,0.00058830,0.00838899,0.00083961,0.0015645
 7,0.00450806,0.00464275,0.01160939,-0.03866905,-0.00023854,-0.00025556
 ,0.00379298,-0.00002150,-0.00022293,-0.00291794,0.00002337,-0.00000452
 ,-0.00009786,-0.00000652,-0.00001652,-0.00000582,-0.00001690,-0.000002
 53,0.00029556,-0.00000068,-0.00000395,-0.00009601,-0.00000168,0.000011
 59,0.00013813,0.00001734,-0.00005441,-0.00091104,-0.00002710,-0.000025
 38,-0.00022896,-0.00014996,0.00020052,0.00444778,0.,0.00000008,0.00001
 034,0.00000049,0.00000010,-0.00000245,0.00000031,0.,0.00000464,0.00000
 007,0.00000094,0.00000888,0.00000055,0.00000015,-0.00000475,-0.0000004
 1,0.00000005,-0.00000246,0.00000417,0.00000518,-0.00003989,-0.00000553
 ,0.00000692,0.00015112,0.00009062,-0.00035275,-0.00519023,-0.00482919,
 -0.01311346,0.02623527,0.00026860,-0.00135697,0.00007380,-0.00046421,-
 0.00008328,0.00000623,-0.00005820,0.00021318,-0.00001495,0.00004693,-0
 .00010893,0.00000580,-0.00009532,0.00003735,-0.00000351,0.00008993,-0.
 00001012,0.00000161,-0.00002270,0.00002525,-0.00000179,0.00000866,0.00
 003237,-0.00000060,-0.00000664,0.00003897,-0.00000212,0.00007707,0.000
 06351,-0.00000235,-0.00003368,-0.00015426,0.00000754,0.00018082,0.0002
 0752,-0.00000827,0.00008954,-0.00035555,0.00002229,0.00108706,0.001377
 41,-0.00001071,0.01013333,0.01637445,-0.00078712,-0.10813671,-0.105965
 56,0.00463275,-0.00889679,-0.03025887,0.00142680,-0.00523317,0.0014897
 1,-0.00029854,-0.00048353,0.00043427,-0.00002760,0.00013303,0.00002039
 ,0.00001559,-0.00007411,-0.00007909,0.00000090,-0.00019154,0.00010732,
 -0.00000734,0.00063833,0.00067763,-0.00003130,-0.00213389,0.00253521,-
 0.00024265,-0.00001395,0.00005505,-0.00000563,-0.00006463,-0.00013690,
 0.00000703,-0.00000456,0.00000514,-0.00000031,0.00000173,-0.00000820,0
 .00000055,-0.00000193,-0.00000519,0.00000011,0.00000878,0.00000524,-0.
 00000022,-0.00000074,-0.00000734,0.00000043,-0.00000234,0.00001049,-0.
 00000077,0.00002705,-0.00003167,-0.00000027,-0.00021462,-0.00052300,0.
 00002237,0.11205831,0.00004539,-0.00016011,0.00002336,-0.00010060,0.00
 011691,-0.00003896,0.00002304,-0.00007094,0.00001257,-0.00002756,0.000
 05504,-0.00000052,0.00005774,-0.00001587,0.00000165,-0.00002944,-0.000
 04197,0.00000307,-0.00002181,0.00001231,-0.00000082,0.00005014,-0.0000
 1933,-0.00000161,-0.00010944,-0.00007734,0.00000210,0.00003365,-0.0000
 1977,0.00000206,0.00002537,0.00006220,-0.00000198,-0.00005063,0.000207
 85,-0.00001244,0.00038732,0.00005222,-0.00000200,-0.00224216,0.0009839
 9,-0.00024806,-0.01275758,-0.01880045,0.00102185,-0.10646239,-0.283811
 12,0.01163267,0.00118020,0.00129168,0.00019718,0.00014124,0.00172956,0
 .00036560,0.00069494,0.00042049,-0.00002421,-0.00005680,-0.00000337,-0
 .00005032,0.00004598,0.00004957,0.00000557,0.00033919,-0.00020955,0.00
 001155,-0.00119386,-0.00062647,0.00003100,0.00411625,-0.00200419,0.000
 41635,-0.00001263,0.00001642,0.00000713,-0.00000195,-0.00001300,-0.000
 00148,-0.00000866,-0.00000151,-0.00000019,-0.00000451,-0.00000880,0.00
 000015,-0.00000519,-0.00000839,0.00000086,-0.00000067,-0.00001830,0.00
 000123,0.00000645,-0.00000532,0.00000026,0.00002659,-0.00001609,0.0000
 0186,0.00003601,-0.00002450,0.00001013,0.00119293,0.00034002,0.0000093
 5,0.11498840,0.29976214,-0.00000228,0.00000101,0.00025707,0.00000717,-
 0.00003868,-0.00056940,-0.00000463,0.00001560,0.00015301,0.00000139,-0
 .00000182,0.00005361,-0.00000461,0.00000133,-0.00000255,0.00000266,0.0
 0000338,0.00002319,0.00000076,-0.00000007,0.00000358,-0.00000157,-0.00
 000189,-0.00006363,0.00000594,0.00000446,-0.00000665,-0.00000073,0.000
 00253,0.00000813,-0.00000220,-0.00000485,0.00001839,0.00000573,-0.0000
 0833,-0.00000608,-0.00001802,-0.00001384,-0.00009801,0.00018566,-0.000
 19037,-0.00291641,0.00079333,0.00148615,0.00371489,0.00465970,0.011640
 59,-0.03867048,-0.00027881,-0.00030389,0.00459161,-0.00022538,0.000387
 10,0.00840255,-0.00004174,-0.00002836,-0.00022903,0.00001977,-0.000049
 09,-0.00091128,-0.00000589,0.00000358,0.00013849,-0.00001992,0.0000078
 6,-0.00009695,0.00007023,0.00006083,0.00029351,-0.00032842,0.00039115,
 0.00443460,-0.00000195,0.00000821,0.00015111,-0.00000029,-0.00000363,-
 0.00003948,0.00000044,0.00000003,-0.00000244,0.00000035,0.00000009,-0.
 00000475,0.00000011,0.00000086,0.00000888,0.00000010,0.00000133,0.0000
 0457,-0.00000032,0.00000004,-0.00000246,-0.00000164,0.00000160,0.00001
 023,-0.00000394,0.00000905,0.00015103,-0.00007072,-0.00001800,0.000161
 68,-0.00486033,-0.01304096,0.02623085,0.00094171,-0.00137961,0.0001365
 5,0.00009368,0.00036278,-0.00001662,0.00020724,-0.00020741,0.00001466,
 -0.00005214,0.00013491,-0.00000844,0.00009030,-0.00004486,0.00000374,-
 0.00002013,-0.00002935,0.00000137,0.00002139,-0.00002540,0.00000273,-0
 .00002116,-0.00003092,0.00000128,0.00007979,0.00003071,-0.00000077,-0.
 00007753,-0.00004783,0.00000140,0.00002479,0.00010379,-0.00000609,-0.0
 0001981,-0.00020481,0.00000834,-0.00047831,-0.00001691,0.00000240,0.00
 004189,0.00139073,-0.00007888,-0.00477089,-0.00260194,-0.00006919,-0.0
 1337664,0.02776417,-0.00179243,-0.14777407,0.12875057,-0.00873268,0.00
 992576,-0.01152578,0.00072320,-0.00103923,-0.00237960,0.00004143,0.000
 51877,-0.00048436,0.00002983,-0.00011886,-0.00009207,0.00000463,-0.000
 07607,0.00005764,-0.00000655,0.00012308,0.00000224,0.00001641,-0.00027
 353,-0.00055128,0.00002921,-0.00008947,0.00045031,-0.00002843,0.000026
 37,0.00004008,-0.00000417,0.00000336,-0.00000722,0.00000028,-0.0000010
 1,0.00000807,-0.00000041,0.00000878,-0.00000067,0.00000010,-0.00000380
 ,0.00000594,-0.00000053,-0.00000065,0.00000958,-0.00000045,-0.00000506
 ,-0.00000574,0.00000027,-0.00008595,0.00012455,-0.00000749,-0.00000612
 ,-0.00005905,0.00000069,0.00128424,-0.00030556,0.00012010,0.15489937,0
 .00223996,0.00113044,-0.00018457,-0.00038009,0.00004805,-0.00001401,0.
 00005078,0.00018128,-0.00000938,-0.00004472,0.00008080,-0.00000411,-0.
 00001499,-0.00003310,0.00000201,0.00011906,-0.00006374,0.00000500,-0.0
 0004317,-0.00003216,-0.00000240,0.00001614,0.00001076,-0.00000013,0.00
 005003,-0.00003175,0.00000379,-0.00006822,-0.00003379,0.00000062,0.000
 02243,0.00007734,-0.00000094,-0.00001465,-0.00010961,0.00001406,0.0000
 0042,0.00013112,-0.00003812,-0.00001162,0.00006831,0.00001006,-0.00125
 347,0.00126379,0.00036864,-0.00367490,0.00580536,-0.00012507,0.1292474
 1,-0.24387447,0.01322279,0.01760625,-0.01859130,0.00149444,-0.00396064
 ,-0.00310712,0.00034746,0.00138714,-0.00050600,0.00006560,-0.00032394,
 -0.00028277,0.00000496,-0.00006742,0.00005155,0.00000366,0.00007943,0.
 00000665,-0.00004870,-0.00081195,0.00020889,-0.00003675,-0.00126563,0.
 00021393,-0.00002300,-0.00002760,-0.00002381,0.00000908,-0.00002333,-0
 .00002183,0.00000137,-0.00000573,-0.00000504,0.00000005,0.00000524,-0.
 00001830,0.00000133,0.00000594,-0.00000650,0.00000093,0.00000589,-0.00
 000640,0.00000018,0.00000806,-0.00000101,0.00000005,-0.00001040,0.0000
 0848,-0.00000278,0.00000863,0.00000854,0.00000790,0.00038592,0.0008564
 1,-0.00032300,-0.13923571,0.25659760,-0.00005982,-0.00024226,-0.002917
 51,0.00002368,-0.00000217,-0.00009798,0.00000065,-0.00001350,-0.000005
 87,0.00000131,-0.00000125,0.00001825,0.00000212,0.00000153,0.00000823,
 -0.00000668,0.00000264,-0.00000675,0.00000370,-0.00000212,-0.00006354,
 -0.00000127,-0.00000088,0.00000359,-0.00000181,0.00000348,0.00002311,0
 .00000250,0.00000094,-0.00000241,-0.00000167,0.00000036,0.00005344,-0.
 00000197,0.00001103,0.00015330,0.00000146,-0.00003839,-0.00056951,-0.0
 0000280,0.00003241,0.00025536,-0.00014235,0.00034715,0.00840604,-0.000
 08682,0.00037600,0.00455778,-0.00875963,0.01321487,-0.03896976,-0.0008
 5726,0.00103013,0.00371332,0.00012721,0.00037266,0.00444286,-0.0000717
 0,0.00003577,0.00029261,0.00001721,0.00000865,-0.00009640,0.00000023,0
 .00000565,0.00013848,0.00001222,-0.00004993,-0.00091136,0.00004335,-0.
 00003259,-0.00022745,0.00006466,0.00000435,0.00016263,-0.00000050,0.00
 001015,0.00015102,0.00000115,0.00000163,0.00001028,0.00000033,0.000000
 27,-0.00000246,-0.00000022,0.00000123,0.00000457,-0.00000053,0.0000009
 3,0.00000887,-0.00000025,0.00000024,-0.00000477,-0.00000048,-0.0000001
 7,-0.00000245,-0.00000017,-0.00000063,-0.00003964,-0.00000298,0.000006
 82,0.00015117,0.00008258,-0.00033403,-0.00519137,0.00961450,-0.0147510
 4,0.02655432\\-0.00008005,0.00021981,-0.00001320,-0.00022074,-0.000078
 56,0.00000074,0.00049233,0.00004150,0.00000560,-0.00023070,0.00004051,
 -0.00000587,-0.00004241,-0.00023013,0.00001181,0.00021055,0.00044652,-
 0.00002087,-0.00015065,-0.00017930,0.00000733,0.00017833,-0.00015157,0
 .00001107,-0.00028179,0.00040502,-0.00002646,0.00008005,-0.00021981,0.
 00001320,0.00022074,0.00007856,-0.00000074,-0.00049233,-0.00004150,-0.
 00000560,0.00023070,-0.00004051,0.00000587,0.00004241,0.00023013,-0.00
 001181,-0.00021055,-0.00044652,0.00002087,0.00015065,0.00017930,-0.000
 00733,-0.00017833,0.00015157,-0.00001107,0.00028179,-0.00040502,0.0000
 2646,-0.00009080,0.00013051,-0.00000853,-0.00015864,-0.00001337,-0.000
 00180,-0.00006784,-0.00014388,0.00000672,0.00009080,-0.00013051,0.0000
 0853,0.00015864,0.00001337,0.00000180,0.00006784,0.00014388,-0.0000067
 2,0.00002507,-0.00004468,0.00000282,0.00005048,0.00000920,0.00000031,0
 .00005130,-0.00000062,0.00000085,0.00001730,0.00004825,-0.00000234,0.0
 0002623,0.00004406,-0.00000197,-0.00003318,0.00003905,-0.00000265,-0.0
 0002507,0.00004468,-0.00000282,-0.00005048,-0.00000920,-0.00000031,-0.
 00005130,0.00000062,-0.00000085,-0.00001730,-0.00004825,0.00000234,-0.
 00002623,-0.00004406,0.00000197,0.00003318,-0.00003905,0.00000265\\\@
 The archive entry for this job was punched.


 "PERFECTION IS NOT AN ACCIDENT"
         --  EAGLE ELECTRIC MANUFACTURING CO.,INC. NY
 Job cpu time:       0 days  0 hours 22 minutes  6.3 seconds.
 Elapsed time:       0 days  0 hours  2 minutes 45.8 seconds.
 File lengths (MBytes):  RWF=    194 Int=      0 D2E=      0 Chk=     13 Scr=      1
 Normal termination of Gaussian 16 at Tue Oct  8 23:35:45 2024.
