 Entering Gaussian System, Link 0=g16
 Initial command:
 /opt/g16/l1.exe "/tmp/Gau-1353206.inp" -scrdir="/tmp/"
 Entering Link 1 = /opt/g16/l1.exe PID=   1353208.
  
 Copyright (c) 1988-2019, Gaussian, Inc.  All Rights Reserved.
  
 This is part of the Gaussian(R) 16 program.  It is based on
 the Gaussian(R) 09 system (copyright 2009, Gaussian, Inc.),
 the Gaussian(R) 03 system (copyright 2003, Gaussian, Inc.),
 the Gaussian(R) 98 system (copyright 1998, Gaussian, Inc.),
 the Gaussian(R) 94 system (copyright 1995, Gaussian, Inc.),
 the Gaussian 92(TM) system (copyright 1992, Gaussian, Inc.),
 the Gaussian 90(TM) system (copyright 1990, Gaussian, Inc.),
 the Gaussian 88(TM) system (copyright 1988, Gaussian, Inc.),
 the Gaussian 86(TM) system (copyright 1986, Carnegie Mellon
 University), and the Gaussian 82(TM) system (copyright 1983,
 Carnegie Mellon University). Gaussian is a federally registered
 trademark of Gaussian, Inc.
  
 This software contains proprietary and confidential information,
 including trade secrets, belonging to Gaussian, Inc.
  
 This software is provided under written license and may be
 used, copied, transmitted, or stored only in accord with that
 written license.
  
 The following legend is applicable only to US Government
 contracts under FAR:
  
                    RESTRICTED RIGHTS LEGEND
  
 Use, reproduction and disclosure by the US Government is
 subject to restrictions as set forth in subparagraphs (a)
 and (c) of the Commercial Computer Software - Restricted
 Rights clause in FAR 52.227-19.
  
 Gaussian, Inc.
 340 Quinnipiac St., Bldg. 40, Wallingford CT 06492
  
  
 ---------------------------------------------------------------
 Warning -- This program may not be used in any manner that
 competes with the business of Gaussian, Inc. or will provide
 assistance to any competitor of Gaussian, Inc.  The licensee
 of this program is prohibited from giving any competitor of
 Gaussian, Inc. access to this program.  By using this program,
 the user acknowledges that Gaussian, Inc. is engaged in the
 business of creating and licensing software in the field of
 computational chemistry and represents and warrants to the
 licensee that it is not a competitor of Gaussian, Inc. and that
 it will not use this program in any manner prohibited above.
 ---------------------------------------------------------------
  

 Cite this work as:
 Gaussian 16, Revision C.01,
 M. J. Frisch, G. W. Trucks, H. B. Schlegel, G. E. Scuseria, 
 M. A. Robb, J. R. Cheeseman, G. Scalmani, V. Barone, 
 G. A. Petersson, H. Nakatsuji, X. Li, M. Caricato, A. V. Marenich, 
 J. Bloino, B. G. Janesko, R. Gomperts, B. Mennucci, H. P. Hratchian, 
 J. V. Ortiz, A. F. Izmaylov, J. L. Sonnenberg, D. Williams-Young, 
 F. Ding, F. Lipparini, F. Egidi, J. Goings, B. Peng, A. Petrone, 
 T. Henderson, D. Ranasinghe, V. G. Zakrzewski, J. Gao, N. Rega, 
 G. Zheng, W. Liang, M. Hada, M. Ehara, K. Toyota, R. Fukuda, 
 J. Hasegawa, M. Ishida, T. Nakajima, Y. Honda, O. Kitao, H. Nakai, 
 T. Vreven, K. Throssell, J. A. Montgomery, Jr., J. E. Peralta, 
 F. Ogliaro, M. J. Bearpark, J. J. Heyd, E. N. Brothers, K. N. Kudin, 
 V. N. Staroverov, T. A. Keith, R. Kobayashi, J. Normand, 
 K. Raghavachari, A. P. Rendell, J. C. Burant, S. S. Iyengar, 
 J. Tomasi, M. Cossi, J. M. Millam, M. Klene, C. Adamo, R. Cammi, 
 J. W. Ochterski, R. L. Martin, K. Morokuma, O. Farkas, 
 J. B. Foresman, and D. J. Fox, Gaussian, Inc., Wallingford CT, 2019.
 
 ******************************************
 Gaussian 16:  ES64L-G16RevC.01  3-Jul-2019
                 8-Oct-2024 
 ******************************************
 %nprocshared=8
 Will use up to    8 processors via shared memory.
 %mem=10400MB
 ----------------------------------------------------------------------
 #N opt freq B3LYP/def2SVPP symm=veryloose em=gd3bj scale=0.961 press=0
 .987
 ----------------------------------------------------------------------
 1/18=20,19=15,26=3,38=1,113=-987000,114=961000/1,3;
 2/9=110,12=2,17=2,18=2,40=1/2;
 3/5=43,7=202,11=2,25=1,30=1,71=1,74=-5,124=41/1,2,3;
 4//1;
 5/5=2,38=5/2;
 6/7=2,8=2,9=2,10=2,28=1/1;
 7//1,2,3,16;
 1/18=20,19=15,26=3/3(2);
 2/9=110/2;
 99//99;
 2/9=110/2;
 3/5=43,7=202,11=2,25=1,30=1,71=1,74=-5,124=41/1,2,3;
 4/5=5,16=3,69=1/1;
 5/5=2,38=5/2;
 7//1,2,3,16;
 1/18=20,19=15,26=3/3(-5);
 2/9=110/2;
 6/7=2,8=2,9=2,10=2,19=2,28=1/1;
 99/9=1/99;
 ------------------------------------------
 c1ccc2c(c1)ccc1cc3ccc4c5ccccc5ccc4c3cc12_2
 ------------------------------------------
 Symbolic Z-matrix:
 Charge =  0 Multiplicity = 1
 C                    -5.9743    2.1537   -0.1761 
 C                    -4.7493    2.7953   -0.2687 
 C                    -3.5659    2.0543   -0.1888 
 C                    -3.562     0.6465   -0.0137 
 C                    -4.831     0.018     0.0777 
 C                    -6.0136    0.7731   -0.004 
 C                    -4.912    -1.3651    0.2506 
 C                    -3.7594   -2.1396    0.335 
 C                    -2.4932   -1.553     0.2488 
 C                    -1.3494   -2.3578    0.3371 
 C                    -0.0549   -1.823     0.2571 
 C                     1.0429   -2.673     0.3514 
 C                     2.3415   -2.1733    0.2757 
 C                     2.6157   -0.8019    0.1022 
 C                     3.9661   -0.2887    0.0243 
 C                     5.1409   -1.0837    0.111 
 C                     6.4271   -0.5392    0.0298 
 C                     6.5891    0.8256   -0.1417 
 C                     5.4649    1.6401   -0.2313 
 C                     4.1689    1.1003   -0.1506 
 C                     3.0709    1.9485   -0.2447 
 C                     1.7722    1.4468   -0.1688 
 C                     1.4953    0.0744    0.0048 
 C                     0.1433   -0.4412    0.0831 
 C                    -1.0403    0.3488   -0.0029 
 C                    -2.3677   -0.1601    0.0742 
 H                    -6.8976    2.723    -0.2374 
 H                    -4.7066    3.8729   -0.4033 
 H                    -2.6358    2.6092   -0.2676 
 H                    -6.9839    0.2855    0.0668 
 H                    -5.8787   -1.8589    0.3221 
 H                    -3.8638   -3.2143    0.4698 
 H                    -1.4697   -3.4323    0.472 
 H                     0.9063   -3.7442    0.4861 
 H                     3.1431   -2.9012    0.3579 
 H                     5.0782   -2.1594    0.2455 
 H                     7.2963   -1.1877    0.1015 
 H                     7.584     1.257    -0.2057 
 H                     5.6081    2.7104   -0.366 
 H                     3.2074    3.0196   -0.3794 
 H                     0.9726    2.1767   -0.2513 
 H                    -0.9257    1.4179   -0.1371 
 

 GradGradGradGradGradGradGradGradGradGradGradGradGradGradGradGradGradGrad
 Berny optimization.
 Initialization pass.
                           ----------------------------
                           !    Initial Parameters    !
                           ! (Angstroms and Degrees)  !
 --------------------------                            --------------------------
 ! Name  Definition              Value          Derivative Info.                !
 --------------------------------------------------------------------------------
 ! R1    R(1,2)                  1.3859         estimate D2E/DX2                !
 ! R2    R(1,6)                  1.3918         estimate D2E/DX2                !
 ! R3    R(1,27)                 1.0864         estimate D2E/DX2                !
 ! R4    R(2,3)                  1.3985         estimate D2E/DX2                !
 ! R5    R(2,28)                 1.0868         estimate D2E/DX2                !
 ! R6    R(3,4)                  1.4187         estimate D2E/DX2                !
 ! R7    R(3,29)                 1.0859         estimate D2E/DX2                !
 ! R8    R(4,5)                  1.4191         estimate D2E/DX2                !
 ! R9    R(4,26)                 1.4438         estimate D2E/DX2                !
 ! R10   R(5,6)                  1.4055         estimate D2E/DX2                !
 ! R11   R(5,7)                  1.3962         estimate D2E/DX2                !
 ! R12   R(6,30)                 1.0882         estimate D2E/DX2                !
 ! R13   R(7,8)                  1.3912         estimate D2E/DX2                !
 ! R14   R(7,31)                 1.0879         estimate D2E/DX2                !
 ! R15   R(8,9)                  1.3981         estimate D2E/DX2                !
 ! R16   R(8,32)                 1.0881         estimate D2E/DX2                !
 ! R17   R(9,10)                 1.4013         estimate D2E/DX2                !
 ! R18   R(9,26)                 1.4094         estimate D2E/DX2                !
 ! R19   R(10,11)                1.4029         estimate D2E/DX2                !
 ! R20   R(10,33)                1.0896         estimate D2E/DX2                !
 ! R21   R(11,12)                1.3916         estimate D2E/DX2                !
 ! R22   R(11,24)                1.4067         estimate D2E/DX2                !
 ! R23   R(12,13)                1.3935         estimate D2E/DX2                !
 ! R24   R(12,34)                1.0882         estimate D2E/DX2                !
 ! R25   R(13,14)                1.4093         estimate D2E/DX2                !
 ! R26   R(13,35)                1.0859         estimate D2E/DX2                !
 ! R27   R(14,15)                1.4467         estimate D2E/DX2                !
 ! R28   R(14,23)                1.4257         estimate D2E/DX2                !
 ! R29   R(15,16)                1.4212         estimate D2E/DX2                !
 ! R30   R(15,20)                1.4146         estimate D2E/DX2                !
 ! R31   R(16,17)                1.3991         estimate D2E/DX2                !
 ! R32   R(16,36)                1.0859         estimate D2E/DX2                !
 ! R33   R(17,18)                1.385          estimate D2E/DX2                !
 ! R34   R(17,37)                1.0868         estimate D2E/DX2                !
 ! R35   R(18,19)                1.3911         estimate D2E/DX2                !
 ! R36   R(18,38)                1.0863         estimate D2E/DX2                !
 ! R37   R(19,20)                1.4062         estimate D2E/DX2                !
 ! R38   R(19,39)                1.0882         estimate D2E/DX2                !
 ! R39   R(20,21)                1.3906         estimate D2E/DX2                !
 ! R40   R(21,22)                1.3943         estimate D2E/DX2                !
 ! R41   R(21,40)                1.0881         estimate D2E/DX2                !
 ! R42   R(22,23)                1.4108         estimate D2E/DX2                !
 ! R43   R(22,41)                1.0858         estimate D2E/DX2                !
 ! R44   R(23,24)                1.4491         estimate D2E/DX2                !
 ! R45   R(24,25)                1.4256         estimate D2E/DX2                !
 ! R46   R(25,26)                1.4237         estimate D2E/DX2                !
 ! R47   R(25,42)                1.0836         estimate D2E/DX2                !
 ! A1    A(2,1,6)              119.4993         estimate D2E/DX2                !
 ! A2    A(2,1,27)             120.3183         estimate D2E/DX2                !
 ! A3    A(6,1,27)             120.1825         estimate D2E/DX2                !
 ! A4    A(1,2,3)              119.9213         estimate D2E/DX2                !
 ! A5    A(1,2,28)             120.133          estimate D2E/DX2                !
 ! A6    A(3,2,28)             119.9457         estimate D2E/DX2                !
 ! A7    A(2,3,4)              122.3551         estimate D2E/DX2                !
 ! A8    A(2,3,29)             116.7349         estimate D2E/DX2                !
 ! A9    A(4,3,29)             120.91           estimate D2E/DX2                !
 ! A10   A(3,4,5)              116.4235         estimate D2E/DX2                !
 ! A11   A(3,4,26)             124.3441         estimate D2E/DX2                !
 ! A12   A(5,4,26)             119.2324         estimate D2E/DX2                !
 ! A13   A(4,5,6)              120.7137         estimate D2E/DX2                !
 ! A14   A(4,5,7)              119.907          estimate D2E/DX2                !
 ! A15   A(6,5,7)              119.3793         estimate D2E/DX2                !
 ! A16   A(1,6,5)              121.0872         estimate D2E/DX2                !
 ! A17   A(1,6,30)             118.5332         estimate D2E/DX2                !
 ! A18   A(5,6,30)             120.3796         estimate D2E/DX2                !
 ! A19   A(5,7,8)              120.7257         estimate D2E/DX2                !
 ! A20   A(5,7,31)             120.62           estimate D2E/DX2                !
 ! A21   A(8,7,31)             118.6543         estimate D2E/DX2                !
 ! A22   A(7,8,9)              120.8634         estimate D2E/DX2                !
 ! A23   A(7,8,32)             118.5458         estimate D2E/DX2                !
 ! A24   A(9,8,32)             120.5908         estimate D2E/DX2                !
 ! A25   A(8,9,10)             119.627          estimate D2E/DX2                !
 ! A26   A(8,9,26)             120.1938         estimate D2E/DX2                !
 ! A27   A(10,9,26)            120.1793         estimate D2E/DX2                !
 ! A28   A(9,10,11)            122.0474         estimate D2E/DX2                !
 ! A29   A(9,10,33)            118.949          estimate D2E/DX2                !
 ! A30   A(11,10,33)           119.0036         estimate D2E/DX2                !
 ! A31   A(10,11,12)           119.42           estimate D2E/DX2                !
 ! A32   A(10,11,24)           120.7644         estimate D2E/DX2                !
 ! A33   A(12,11,24)           119.8156         estimate D2E/DX2                !
 ! A34   A(11,12,13)           120.8268         estimate D2E/DX2                !
 ! A35   A(11,12,34)           120.7042         estimate D2E/DX2                !
 ! A36   A(13,12,34)           118.469          estimate D2E/DX2                !
 ! A37   A(12,13,14)           122.4778         estimate D2E/DX2                !
 ! A38   A(12,13,35)           116.3237         estimate D2E/DX2                !
 ! A39   A(14,13,35)           121.1985         estimate D2E/DX2                !
 ! A40   A(13,14,15)           122.2385         estimate D2E/DX2                !
 ! A41   A(13,14,23)           116.9768         estimate D2E/DX2                !
 ! A42   A(15,14,23)           120.7847         estimate D2E/DX2                !
 ! A43   A(14,15,16)           124.7422         estimate D2E/DX2                !
 ! A44   A(14,15,20)           119.2612         estimate D2E/DX2                !
 ! A45   A(16,15,20)           115.9966         estimate D2E/DX2                !
 ! A46   A(15,16,17)           122.5957         estimate D2E/DX2                !
 ! A47   A(15,16,36)           120.9292         estimate D2E/DX2                !
 ! A48   A(17,16,36)           116.4751         estimate D2E/DX2                !
 ! A49   A(16,17,18)           119.882          estimate D2E/DX2                !
 ! A50   A(16,17,37)           119.9461         estimate D2E/DX2                !
 ! A51   A(18,17,37)           120.1719         estimate D2E/DX2                !
 ! A52   A(17,18,19)           119.3663         estimate D2E/DX2                !
 ! A53   A(17,18,38)           120.3809         estimate D2E/DX2                !
 ! A54   A(19,18,38)           120.2528         estimate D2E/DX2                !
 ! A55   A(18,19,20)           121.0858         estimate D2E/DX2                !
 ! A56   A(18,19,39)           118.5215         estimate D2E/DX2                !
 ! A57   A(20,19,39)           120.3927         estimate D2E/DX2                !
 ! A58   A(15,20,19)           121.0736         estimate D2E/DX2                !
 ! A59   A(15,20,21)           119.6087         estimate D2E/DX2                !
 ! A60   A(19,20,21)           119.3177         estimate D2E/DX2                !
 ! A61   A(20,21,22)           120.8153         estimate D2E/DX2                !
 ! A62   A(20,21,40)           120.6448         estimate D2E/DX2                !
 ! A63   A(22,21,40)           118.5399         estimate D2E/DX2                !
 ! A64   A(21,22,23)           122.6529         estimate D2E/DX2                !
 ! A65   A(21,22,41)           116.0983         estimate D2E/DX2                !
 ! A66   A(23,22,41)           121.2488         estimate D2E/DX2                !
 ! A67   A(14,23,22)           116.8772         estimate D2E/DX2                !
 ! A68   A(14,23,24)           120.7177         estimate D2E/DX2                !
 ! A69   A(22,23,24)           122.4051         estimate D2E/DX2                !
 ! A70   A(11,24,23)           119.1852         estimate D2E/DX2                !
 ! A71   A(11,24,25)           115.7729         estimate D2E/DX2                !
 ! A72   A(23,24,25)           125.0419         estimate D2E/DX2                !
 ! A73   A(24,25,26)           124.9409         estimate D2E/DX2                !
 ! A74   A(24,25,42)           117.8014         estimate D2E/DX2                !
 ! A75   A(26,25,42)           117.2576         estimate D2E/DX2                !
 ! A76   A(4,26,9)             119.0777         estimate D2E/DX2                !
 ! A77   A(4,26,25)            124.6271         estimate D2E/DX2                !
 ! A78   A(9,26,25)            116.2952         estimate D2E/DX2                !
 ! D1    D(6,1,2,3)             -0.006          estimate D2E/DX2                !
 ! D2    D(6,1,2,28)           179.9912         estimate D2E/DX2                !
 ! D3    D(27,1,2,3)          -179.9963         estimate D2E/DX2                !
 ! D4    D(27,1,2,28)            0.0009         estimate D2E/DX2                !
 ! D5    D(2,1,6,5)              0.0078         estimate D2E/DX2                !
 ! D6    D(2,1,6,30)           179.9991         estimate D2E/DX2                !
 ! D7    D(27,1,6,5)           179.9982         estimate D2E/DX2                !
 ! D8    D(27,1,6,30)           -0.0105         estimate D2E/DX2                !
 ! D9    D(1,2,3,4)              0.003          estimate D2E/DX2                !
 ! D10   D(1,2,3,29)           179.9965         estimate D2E/DX2                !
 ! D11   D(28,2,3,4)          -179.9942         estimate D2E/DX2                !
 ! D12   D(28,2,3,29)           -0.0007         estimate D2E/DX2                !
 ! D13   D(2,3,4,5)             -0.0016         estimate D2E/DX2                !
 ! D14   D(2,3,4,26)           179.9977         estimate D2E/DX2                !
 ! D15   D(29,3,4,5)          -179.9949         estimate D2E/DX2                !
 ! D16   D(29,3,4,26)            0.0044         estimate D2E/DX2                !
 ! D17   D(3,4,5,6)              0.0033         estimate D2E/DX2                !
 ! D18   D(3,4,5,7)            179.9995         estimate D2E/DX2                !
 ! D19   D(26,4,5,6)          -179.996          estimate D2E/DX2                !
 ! D20   D(26,4,5,7)             0.0001         estimate D2E/DX2                !
 ! D21   D(3,4,26,9)           179.9998         estimate D2E/DX2                !
 ! D22   D(3,4,26,25)            0.0022         estimate D2E/DX2                !
 ! D23   D(5,4,26,9)            -0.0009         estimate D2E/DX2                !
 ! D24   D(5,4,26,25)         -179.9985         estimate D2E/DX2                !
 ! D25   D(4,5,6,1)             -0.0066         estimate D2E/DX2                !
 ! D26   D(4,5,6,30)          -179.9977         estimate D2E/DX2                !
 ! D27   D(7,5,6,1)            179.9973         estimate D2E/DX2                !
 ! D28   D(7,5,6,30)             0.0061         estimate D2E/DX2                !
 ! D29   D(4,5,7,8)              0.0027         estimate D2E/DX2                !
 ! D30   D(4,5,7,31)           179.9997         estimate D2E/DX2                !
 ! D31   D(6,5,7,8)            179.9989         estimate D2E/DX2                !
 ! D32   D(6,5,7,31)            -0.0041         estimate D2E/DX2                !
 ! D33   D(5,7,8,9)             -0.0047         estimate D2E/DX2                !
 ! D34   D(5,7,8,32)           179.9986         estimate D2E/DX2                !
 ! D35   D(31,7,8,9)           179.9982         estimate D2E/DX2                !
 ! D36   D(31,7,8,32)            0.0015         estimate D2E/DX2                !
 ! D37   D(7,8,9,10)           179.9983         estimate D2E/DX2                !
 ! D38   D(7,8,9,26)             0.0038         estimate D2E/DX2                !
 ! D39   D(32,8,9,10)           -0.0051         estimate D2E/DX2                !
 ! D40   D(32,8,9,26)         -179.9996         estimate D2E/DX2                !
 ! D41   D(8,9,10,11)         -179.9978         estimate D2E/DX2                !
 ! D42   D(8,9,10,33)            0.0074         estimate D2E/DX2                !
 ! D43   D(26,9,10,11)          -0.0034         estimate D2E/DX2                !
 ! D44   D(26,9,10,33)        -179.9981         estimate D2E/DX2                !
 ! D45   D(8,9,26,4)            -0.001          estimate D2E/DX2                !
 ! D46   D(8,9,26,25)          179.9968         estimate D2E/DX2                !
 ! D47   D(10,9,26,4)         -179.9954         estimate D2E/DX2                !
 ! D48   D(10,9,26,25)           0.0024         estimate D2E/DX2                !
 ! D49   D(9,10,11,12)        -179.9952         estimate D2E/DX2                !
 ! D50   D(9,10,11,24)           0.0021         estimate D2E/DX2                !
 ! D51   D(33,10,11,12)         -0.0004         estimate D2E/DX2                !
 ! D52   D(33,10,11,24)        179.9969         estimate D2E/DX2                !
 ! D53   D(10,11,12,13)        179.9989         estimate D2E/DX2                !
 ! D54   D(10,11,12,34)         -0.002          estimate D2E/DX2                !
 ! D55   D(24,11,12,13)          0.0016         estimate D2E/DX2                !
 ! D56   D(24,11,12,34)       -179.9994         estimate D2E/DX2                !
 ! D57   D(10,11,24,23)       -179.9959         estimate D2E/DX2                !
 ! D58   D(10,11,24,25)          0.0            estimate D2E/DX2                !
 ! D59   D(12,11,24,23)          0.0014         estimate D2E/DX2                !
 ! D60   D(12,11,24,25)        179.9973         estimate D2E/DX2                !
 ! D61   D(11,12,13,14)         -0.0017         estimate D2E/DX2                !
 ! D62   D(11,12,13,35)        179.9999         estimate D2E/DX2                !
 ! D63   D(34,12,13,14)        179.9992         estimate D2E/DX2                !
 ! D64   D(34,12,13,35)          0.0008         estimate D2E/DX2                !
 ! D65   D(12,13,14,15)        179.9991         estimate D2E/DX2                !
 ! D66   D(12,13,14,23)         -0.0012         estimate D2E/DX2                !
 ! D67   D(35,13,14,15)         -0.0025         estimate D2E/DX2                !
 ! D68   D(35,13,14,23)        179.9971         estimate D2E/DX2                !
 ! D69   D(13,14,15,16)          0.0005         estimate D2E/DX2                !
 ! D70   D(13,14,15,20)       -179.9978         estimate D2E/DX2                !
 ! D71   D(23,14,15,16)       -179.9991         estimate D2E/DX2                !
 ! D72   D(23,14,15,20)          0.0025         estimate D2E/DX2                !
 ! D73   D(13,14,23,22)        179.9976         estimate D2E/DX2                !
 ! D74   D(13,14,23,24)          0.0042         estimate D2E/DX2                !
 ! D75   D(15,14,23,22)         -0.0027         estimate D2E/DX2                !
 ! D76   D(15,14,23,24)       -179.9961         estimate D2E/DX2                !
 ! D77   D(14,15,16,17)        179.9965         estimate D2E/DX2                !
 ! D78   D(14,15,16,36)         -0.0002         estimate D2E/DX2                !
 ! D79   D(20,15,16,17)         -0.0052         estimate D2E/DX2                !
 ! D80   D(20,15,16,36)        179.9982         estimate D2E/DX2                !
 ! D81   D(14,15,20,19)       -179.9973         estimate D2E/DX2                !
 ! D82   D(14,15,20,21)         -0.0008         estimate D2E/DX2                !
 ! D83   D(16,15,20,19)          0.0042         estimate D2E/DX2                !
 ! D84   D(16,15,20,21)       -179.9993         estimate D2E/DX2                !
 ! D85   D(15,16,17,18)          0.0037         estimate D2E/DX2                !
 ! D86   D(15,16,17,37)        179.9972         estimate D2E/DX2                !
 ! D87   D(36,16,17,18)       -179.9995         estimate D2E/DX2                !
 ! D88   D(36,16,17,37)         -0.006          estimate D2E/DX2                !
 ! D89   D(16,17,18,19)         -0.001          estimate D2E/DX2                !
 ! D90   D(16,17,18,38)        179.9951         estimate D2E/DX2                !
 ! D91   D(37,17,18,19)       -179.9945         estimate D2E/DX2                !
 ! D92   D(37,17,18,38)          0.0016         estimate D2E/DX2                !
 ! D93   D(17,18,19,20)          0.0002         estimate D2E/DX2                !
 ! D94   D(17,18,19,39)       -179.9977         estimate D2E/DX2                !
 ! D95   D(38,18,19,20)       -179.9959         estimate D2E/DX2                !
 ! D96   D(38,18,19,39)          0.0062         estimate D2E/DX2                !
 ! D97   D(18,19,20,15)         -0.0019         estimate D2E/DX2                !
 ! D98   D(18,19,20,21)       -179.9984         estimate D2E/DX2                !
 ! D99   D(39,19,20,15)        179.996          estimate D2E/DX2                !
 ! D100  D(39,19,20,21)         -0.0005         estimate D2E/DX2                !
 ! D101  D(15,20,21,22)         -0.0007         estimate D2E/DX2                !
 ! D102  D(15,20,21,40)       -179.9978         estimate D2E/DX2                !
 ! D103  D(19,20,21,22)        179.9959         estimate D2E/DX2                !
 ! D104  D(19,20,21,40)         -0.0013         estimate D2E/DX2                !
 ! D105  D(20,21,22,23)          0.0005         estimate D2E/DX2                !
 ! D106  D(20,21,22,41)       -179.9991         estimate D2E/DX2                !
 ! D107  D(40,21,22,23)        179.9977         estimate D2E/DX2                !
 ! D108  D(40,21,22,41)         -0.0019         estimate D2E/DX2                !
 ! D109  D(21,22,23,14)          0.0012         estimate D2E/DX2                !
 ! D110  D(21,22,23,24)        179.9946         estimate D2E/DX2                !
 ! D111  D(41,22,23,14)       -179.9992         estimate D2E/DX2                !
 ! D112  D(41,22,23,24)         -0.0059         estimate D2E/DX2                !
 ! D113  D(14,23,24,11)         -0.0044         estimate D2E/DX2                !
 ! D114  D(14,23,24,25)       -179.9998         estimate D2E/DX2                !
 ! D115  D(22,23,24,11)       -179.9974         estimate D2E/DX2                !
 ! D116  D(22,23,24,25)          0.0071         estimate D2E/DX2                !
 ! D117  D(11,24,25,26)         -0.0009         estimate D2E/DX2                !
 ! D118  D(11,24,25,42)        179.9987         estimate D2E/DX2                !
 ! D119  D(23,24,25,26)        179.9947         estimate D2E/DX2                !
 ! D120  D(23,24,25,42)         -0.0056         estimate D2E/DX2                !
 ! D121  D(24,25,26,4)         179.9974         estimate D2E/DX2                !
 ! D122  D(24,25,26,9)          -0.0002         estimate D2E/DX2                !
 ! D123  D(42,25,26,4)          -0.0023         estimate D2E/DX2                !
 ! D124  D(42,25,26,9)        -179.9999         estimate D2E/DX2                !
 --------------------------------------------------------------------------------
 Trust Radius=3.00D-01 FncErr=1.00D-07 GrdErr=1.00D-06 EigMax=2.50D+02 EigMin=1.00D-04
 Number of steps in this run=    252 maximum allowed number of steps=    252.
 GradGradGradGradGradGradGradGradGradGradGradGradGradGradGradGradGradGrad

                          Input orientation:                          
 ---------------------------------------------------------------------
 Center     Atomic      Atomic             Coordinates (Angstroms)
 Number     Number       Type             X           Y           Z
 ---------------------------------------------------------------------
      1          6           0       -5.974300    2.153700   -0.176100
      2          6           0       -4.749300    2.795300   -0.268700
      3          6           0       -3.565900    2.054300   -0.188800
      4          6           0       -3.562000    0.646500   -0.013700
      5          6           0       -4.831000    0.018000    0.077700
      6          6           0       -6.013600    0.773100   -0.004000
      7          6           0       -4.912000   -1.365100    0.250600
      8          6           0       -3.759400   -2.139600    0.335000
      9          6           0       -2.493200   -1.553000    0.248800
     10          6           0       -1.349400   -2.357800    0.337100
     11          6           0       -0.054900   -1.823000    0.257100
     12          6           0        1.042900   -2.673000    0.351400
     13          6           0        2.341500   -2.173300    0.275700
     14          6           0        2.615700   -0.801900    0.102200
     15          6           0        3.966100   -0.288700    0.024300
     16          6           0        5.140900   -1.083700    0.111000
     17          6           0        6.427100   -0.539200    0.029800
     18          6           0        6.589100    0.825600   -0.141700
     19          6           0        5.464900    1.640100   -0.231300
     20          6           0        4.168900    1.100300   -0.150600
     21          6           0        3.070900    1.948500   -0.244700
     22          6           0        1.772200    1.446800   -0.168800
     23          6           0        1.495300    0.074400    0.004800
     24          6           0        0.143300   -0.441200    0.083100
     25          6           0       -1.040300    0.348800   -0.002900
     26          6           0       -2.367700   -0.160100    0.074200
     27          1           0       -6.897600    2.723000   -0.237400
     28          1           0       -4.706600    3.872900   -0.403300
     29          1           0       -2.635800    2.609200   -0.267600
     30          1           0       -6.983900    0.285500    0.066800
     31          1           0       -5.878700   -1.858900    0.322100
     32          1           0       -3.863800   -3.214300    0.469800
     33          1           0       -1.469700   -3.432300    0.472000
     34          1           0        0.906300   -3.744200    0.486100
     35          1           0        3.143100   -2.901200    0.357900
     36          1           0        5.078200   -2.159400    0.245500
     37          1           0        7.296300   -1.187700    0.101500
     38          1           0        7.584000    1.257000   -0.205700
     39          1           0        5.608100    2.710400   -0.366000
     40          1           0        3.207400    3.019600   -0.379400
     41          1           0        0.972600    2.176700   -0.251300
     42          1           0       -0.925700    1.417900   -0.137100
 ---------------------------------------------------------------------
                    Distance matrix (angstroms):
                    1          2          3          4          5
     1  C    0.000000
     2  C    1.385947   0.000000
     3  C    2.410484   1.398535   0.000000
     4  C    2.849073   2.468207   1.418653   0.000000
     5  C    2.435727   2.800011   2.412057   1.419059   0.000000
     6  C    1.391840   2.399544   2.768909   2.454886   1.405487
     7  C    3.700339   4.195840   3.700994   2.436984   1.396217
     8  C    4.857924   5.069279   4.230911   2.814767   2.422760
     9  C    5.102766   4.926003   3.788772   2.459480   2.821812
    10  C    6.481258   6.203286   4.965488   3.747596   4.222944
    11  C    7.144306   6.606251   5.249705   4.297850   5.121777
    12  C    8.533252   7.989769   6.624215   5.688364   6.466768
    13  C    9.385072   8.675414   7.279130   6.548766   7.502383
    14  C    9.088516   8.204916   6.815771   6.346280   7.491741
    15  C   10.238019   9.249600   7.890886   7.586062   8.802607
    16  C   11.580624  10.630469   9.259875   8.874098  10.032629
    17  C   12.692077  11.667044  10.326378  10.059319  11.271982
    18  C   12.633450  11.508917  10.229171  10.153487  11.450722
    19  C   11.450857  10.279386   9.040394   9.084025  10.427476
    20  C   10.197784   9.078616   7.793504   7.745417   9.067618
    21  C    9.047787   7.865950   6.637879   6.763426   8.140688
    22  C    7.778690   6.660210   5.372594   5.396131   6.760509
    23  C    7.755716   6.817120   5.438127   5.089590   6.326971
    24  C    6.650242   5.876753   4.478796   3.862863   4.995453
    25  C    5.256617   4.451145   3.053186   2.539235   3.805960
    26  C    4.292305   3.811035   2.531486   1.443843   2.469733
    27  H    1.086436   2.149744   3.398492   3.935495   3.418647
    28  H    2.148100   1.086813   2.157432   3.445512   3.886784
    29  H    3.370673   2.121678   1.085914   2.185064   3.413569
    30  H    2.137397   3.377143   3.857034   3.441831   2.169482
    31  H    4.044540   4.825574   4.574188   3.428832   2.163368
    32  H    5.804035   6.119214   5.317955   3.902644   3.396613
    33  H    7.205196   7.077246   5.910456   4.609798   4.833051
    34  H    9.086605   8.678744   7.353820   6.284405   6.872958
    35  H   10.438590   9.753600   8.358621   7.594908   8.496265
    36  H   11.871745  11.017859   9.626232   9.088086  10.146993
    37  H   13.687616  12.692431  11.339410  11.012731  12.187111
    38  H   13.587952  12.429023  11.178383  11.164358  12.479890
    39  H   11.597326  10.358205   9.199138   9.406090  10.789842
    40  H    9.224680   7.960631   6.844394   7.182626   8.592696
    41  H    6.947345   5.755268   4.540580   4.791718   6.200806
    42  H    5.102086   4.066259   2.716309   2.749611   4.154182
                    6          7          8          9         10
     6  C    0.000000
     7  C    2.418728   0.000000
     8  C    3.698670   1.391208   0.000000
     9  C    4.227040   2.426088   1.398139   0.000000
    10  C    5.627934   3.699332   2.419859   1.401349   0.000000
    11  C    6.504922   4.878641   3.718820   2.453217   1.402905
    12  C    7.861050   6.097671   4.831860   3.710651   2.413018
    13  C    8.863814   7.298430   6.101281   4.874405   3.696019
    14  C    8.772498   7.550198   6.518093   5.165898   4.265914
    15  C   10.036067   8.945977   7.950202   6.585697   5.712579
    16  C   11.308572  10.057807   8.965514   7.649753   6.618039
    17  C   12.509768  11.371282  10.315969   8.980396   7.992227
    18  C   12.603562  11.714451  10.775486   9.396723   8.566392
    19  C   11.513441  10.814042   9.984715   8.588233   7.920920
    20  C   10.188810   9.418169   8.578502   7.182137   6.530539
    21  C    9.163386   8.657480   7.981329   6.592667   6.198529
    22  C    7.816630   7.263691   6.611708   5.231331   4.947252
    23  C    7.541342   6.571611   5.711629   4.314638   3.757438
    24  C    6.276108   5.141761   4.263694   2.866128   2.442545
    25  C    4.991367   4.241671   3.701326   2.406473   2.745328
    26  C    3.764248   2.820745   2.433776   1.409399   2.436378
    27  H    2.153611   4.570920   5.815567   6.157865   7.545005
    28  H    3.387691   5.282653   6.131267   5.896165   7.116221
    29  H    3.853606   4.609195   4.916981   4.196536   5.166389
    30  H    1.088232   2.655378   4.043568   4.855882   6.229582
    31  H    2.655553   1.087869   2.137847   3.400082   4.556719
    32  H    4.554721   2.136893   1.088141   2.165018   2.659588
    33  H    6.209589   4.021413   2.632977   2.151543   1.089596
    34  H    8.278358   6.290325   4.936226   4.051453   2.651884
    35  H    9.873024   8.200960   6.944427   5.796328   4.525293
    36  H   11.475619  10.021728   8.838075   7.595645   6.431314
    37  H   13.453970  12.210499  11.099060   9.797421   8.727701
    38  H   13.607703  12.776292  11.853353  10.471515   9.652308
    39  H   11.787624  11.298779  10.571847   9.175272   8.636423
    40  H    9.498133   9.249170   8.698506   7.334858   7.084789
    41  H    7.130094   6.886564   6.431642   5.115910   5.128312
    42  H    5.130323   4.877088   4.572586   3.381157   3.828877
                   11         12         13         14         15
    11  C    0.000000
    12  C    1.391602   0.000000
    13  C    2.421939   1.393482   0.000000
    14  C    2.863345   2.456993   1.409264   0.000000
    15  C    4.310071   3.786420   2.500849   1.446728   0.000000
    16  C    5.250166   4.401962   3.008487   2.540890   1.421160
    17  C    6.611818   5.800529   4.407139   3.821128   2.473722
    18  C    7.163579   6.575993   5.216295   4.300715   2.854707
    19  C    6.534507   6.204551   4.955270   3.767297   2.456013
    20  C    5.152901   4.925614   3.773272   2.468745   1.414581
    21  C    4.924088   5.081966   4.218065   2.809314   2.424625
    22  C    3.769785   4.216069   3.691450   2.416937   2.804005
    23  C    2.463108   2.805887   2.416939   1.425722   2.497414
    24  C    1.406745   2.421197   2.805236   2.498646   3.826292
    25  C    2.399027   3.687347   4.227905   3.834253   5.046899
    26  C    2.854423   4.245433   5.125441   5.024636   6.335302
    27  H    8.230018   9.618474  10.468906  10.151016  11.276471
    28  H    7.383611   8.745006   9.310923   8.702032   9.628992
    29  H    5.155652   6.466655   6.923944   6.273006   7.215824
    30  H    7.245207   8.559395   9.646368   9.661056  10.965127
    31  H    5.824273   6.969373   8.226341   8.562735   9.973680
    32  H    4.060625   4.937887   6.295006   6.923780   8.370480
    33  H    2.153529   2.627592   4.018564   4.873012   6.295282
    34  H    2.160406   1.088243   2.138175   3.424406   4.638547
    35  H    3.376371   2.112571   1.085890   2.179586   2.759307
    36  H    5.144124   4.069232   2.736902   2.815537   2.187513
    37  H    7.380241   6.432230   5.054878   4.696473   3.450274
    38  H    8.249447   7.651225   6.283511   5.386824   3.940976
    39  H    7.280765   7.094837   5.910413   4.637879   3.441380
    40  H    5.873543   6.133908   5.305200   3.896910   3.418106
    41  H    4.160748   4.887513   4.590655   3.420058   3.887826
    42  H    3.378923   4.566123   4.872547   4.186441   5.183458
                   16         17         18         19         20
    16  C    0.000000
    17  C    1.399065   0.000000
    18  C    2.409682   1.385040   0.000000
    19  C    2.764278   2.396529   1.391138   0.000000
    20  C    2.404802   2.796421   2.435756   1.406241   0.000000
    21  C    3.688585   4.186655   3.694488   2.413820   1.390648
    22  C    4.222542   5.064754   4.856866   3.698284   2.421686
    23  C    3.826601   4.969887   5.150977   4.273744   2.867884
    24  C    5.038808   6.284790   6.572949   5.722769   4.316977
    25  C    6.346043   7.520085   7.645544   6.636057   5.265200
    26  C    7.565280   8.803079   9.013461   8.042616   6.660802
    27  H   12.630829  13.720823  13.619852  12.409839  11.185174
    28  H   11.036559  11.983884  11.702449  10.415104   9.301917
    29  H    8.617303   9.598803   9.396588   8.158542   6.970969
    30  H   12.201944  13.436384  13.585342  12.525830  11.184637
    31  H   11.048850  12.379813  12.761963  11.883876  10.484969
    32  H    9.260282  10.642010  11.223094  10.539515   9.139198
    33  H    7.024690   8.421699   9.135130   8.620473   7.261260
    34  H    5.015057   6.399958   7.319250   7.091275   5.875298
    35  H    2.712097   4.058491   5.100348   5.134327   4.162072
    36  H    1.085888   2.119223   3.367932   3.848776   3.407252
    37  H    2.157928   1.086831   2.147709   3.385445   3.883185
    38  H    3.398222   2.149468   1.086291   2.153603   3.419137
    39  H    3.852402   3.374510   2.136619   1.088206   2.170280
    40  H    4.562454   4.816531   4.038073   2.649766   2.158829
    41  H    5.304356   6.099730   5.777764   4.524279   3.374183
    42  H    6.566825   7.610635   7.538107   6.395156   5.104508
                   21         22         23         24         25
    21  C    0.000000
    22  C    1.394305   0.000000
    23  C    2.461101   1.410777   0.000000
    24  C    3.793278   2.506255   1.449096   0.000000
    25  C    4.418085   3.023786   2.550416   1.425624   0.000000
    26  C    5.841769   4.447465   3.870733   2.526701   1.423697
    27  H    9.998545   8.763494   8.804233   7.725876   6.324538
    28  H    8.013612   6.922124   7.284141   6.509191   5.101113
    29  H    5.744865   4.559759   4.854421   4.141416   2.779405
    30  H   10.196156   8.835916   8.482054   7.164170   5.944346
    31  H    9.742325   8.348946   7.629823   6.191242   5.328197
    32  H    8.674968   7.341537   6.304897   4.888402   4.570698
    33  H    7.076985   5.892890   4.615891   3.420481   3.834923
    34  H    6.134036   5.303316   3.893620   3.413852   4.558621
    35  H    4.887528   4.589323   3.419667   3.889205   5.309756
    36  H    4.598303   4.909782   4.229063   5.227985   6.617312
    37  H    5.273482   6.126119   5.937495   7.191871   8.477655
    38  H    4.565935   5.815015   6.206055   7.637493   8.674359
    39  H    2.651903   4.043476   4.899093   6.324422   7.064716
    40  H    1.088132   2.139591   3.428279   4.645401   5.031688
    41  H    2.110683   1.085781   2.181391   2.766399   2.730327
    42  H    4.033104   2.698241   2.772430   2.155807   1.083567
                   26         27         28         29         30
    26  C    0.000000
    27  H    5.378602   0.000000
    28  H    4.686528   2.479975   0.000000
    29  H    2.803164   4.263426   2.429725   0.000000
    30  H    4.637663   2.457924   4.275106   4.941394   0.000000
    31  H    3.908260   4.727050   5.895215   5.552303   2.425922
    32  H    3.423880   6.704894   7.190342   5.997074   4.705957
    33  H    3.416422   8.237297   8.038011   6.197299   6.662779
    34  H    4.871808  10.161151   9.503467   7.313018   8.869586
    35  H    6.161415  11.523960  10.396425   8.009460  10.620543
    36  H    7.711548  12.941824  11.513118   9.083425  12.308685
    37  H    9.718519  14.726684  13.035878  10.639516  14.356031
    38  H   10.055986  14.555648  12.567451  10.309054  14.602800
    39  H    8.488046  12.506368  10.380069   8.245108  12.830663
    40  H    6.434127  10.110349   7.959905   5.858661  10.561108
    41  H    4.089522   7.889150   5.929040   3.634264   8.184358
    42  H    2.148045   6.113668   4.515871   2.088221   6.166498
                   31         32         33         34         35
    31  H    0.000000
    32  H    2.432847   0.000000
    33  H    4.683731   2.404006   0.000000
    34  H    7.043967   4.799470   2.396426   0.000000
    35  H    9.081880   7.014784   4.644675   2.393817   0.000000
    36  H   10.961288   9.006802   6.674322   4.469254   2.075455
    37  H   13.193930  11.348594   9.056393   6.893164   4.500099
    38  H   13.828655  12.308572  10.218527   8.371515   6.109817
    39  H   12.381380  11.203460   9.409052   8.030869   6.171735
    40  H   10.336783   9.464910   8.014185   7.196745   5.966877
    41  H    7.972149   7.278299   6.160266   5.967010   5.555831
    42  H    5.956550   5.518880   4.918473   5.512883   5.954392
                   36         37         38         39         40
    36  H    0.000000
    37  H    2.425882   0.000000
    38  H    4.260799   2.480665   0.000000
    39  H    4.936565   4.273612   2.458099   0.000000
    40  H    5.541880   5.886573   4.721394   2.420567   0.000000
    41  H    5.992038   7.171669   6.675218   4.667532   2.391907
    42  H    6.999305   8.628289   8.511497   6.664345   4.439219
                   41         42
    41  H    0.000000
    42  H    2.047526   0.000000
 Stoichiometry    C26H16
 Framework group  CS[SG(C26H16)]
 Deg. of freedom    81
 Full point group                 CS      NOp   2
 Largest Abelian subgroup         CS      NOp   2
 Largest concise Abelian subgroup C1      NOp   1
                         Standard orientation:                         
 ---------------------------------------------------------------------
 Center     Atomic      Atomic             Coordinates (Angstroms)
 Number     Number       Type             X           Y           Z
 ---------------------------------------------------------------------
      1          6           0        2.136763    5.988175   -0.000000
      2          6           0        2.799600    4.771008   -0.000000
      3          6           0        2.068718    3.578652   -0.000000
      4          6           0        0.650220    3.557660   -0.000000
      5          6           0       -0.000000    4.818985   -0.000000
      6          6           0        0.745105    6.010711   -0.000000
      7          6           0       -1.394740    4.883189    0.000000
      8          6           0       -2.159790    3.721226    0.000000
      9          6           0       -1.551822    2.462192    0.000000
     10          6           0       -2.347526    1.308661    0.000000
     11          6           0       -1.791382    0.020699    0.000000
     12          6           0       -2.633232   -1.087383    0.000000
     13          6           0       -2.112398   -2.379871    0.000000
     14          6           0       -0.726866   -2.637411    0.000000
     15          6           0       -0.191742   -3.981533    0.000000
     16          6           0       -0.977150   -5.165945    0.000000
     17          6           0       -0.411333   -6.445490    0.000000
     18          6           0        0.966051   -6.590914   -0.000000
     19          6           0        1.771777   -5.456863   -0.000000
     20          6           0        1.210567   -4.167462   -0.000000
     21          6           0        2.050604   -3.059202   -0.000000
     22          6           0        1.527760   -1.766638   -0.000000
     23          6           0        0.141191   -1.506411   -0.000000
     24          6           0       -0.396384   -0.160717    0.000000
     25          6           0        0.383870    1.032433   -0.000000
     26          6           0       -0.146612    2.353608    0.000000
     27          1           0        2.698109    6.918355   -0.000000
     28          1           0        3.886009    4.741392   -0.000000
     29          1           0        2.640267    2.655321   -0.000000
     30          1           0        0.240839    6.975058   -0.000000
     31          1           0       -1.905201    5.843860    0.000000
     32          1           0       -3.244090    3.812574    0.000000
     33          1           0       -3.431831    1.415910    0.000000
     34          1           0       -3.714434   -0.963794    0.000000
     35          1           0       -2.835166   -3.190281    0.000000
     36          1           0       -2.061903   -5.116307    0.000000
     37          1           0       -1.053203   -7.322533    0.000000
     38          1           0        1.414008   -7.580541   -0.000000
     39          1           0        2.852166   -5.587064   -0.000000
     40          1           0        3.131706   -3.182692   -0.000000
     41          1           0        2.252573   -0.958204   -0.000000
     42          1           0        1.462662    0.930817   -0.000000
 ---------------------------------------------------------------------
 Rotational constants (GHZ):           0.6020053           0.0979775           0.0842635
 Standard basis: def2SVPP (5D, 7F)
 There are   318 symmetry adapted cartesian basis functions of A'  symmetry.
 There are   104 symmetry adapted cartesian basis functions of A"  symmetry.
 There are   292 symmetry adapted basis functions of A'  symmetry.
 There are   104 symmetry adapted basis functions of A"  symmetry.
   396 basis functions,   714 primitive gaussians,   422 cartesian basis functions
    86 alpha electrons       86 beta electrons
       nuclear repulsion energy      1962.3337340594 Hartrees.
 NAtoms=   42 NActive=   42 NUniq=   42 SFac= 1.00D+00 NAtFMM=   60 NAOKFM=F Big=F
 Integral buffers will be    131072 words long.
 Raffenetti 2 integral format.
 Two-electron integral symmetry is turned on.
 Nuclear repulsion after empirical dispersion term =     1962.2234789479 Hartrees.
 One-electron integrals computed using PRISM.
   2 Symmetry operations used in ECPInt.
 ECPInt:  NShTT=   17766 NPrTT=   71262 LenC2=   15176 LenP2D=   40311.
 LDataN:  DoStor=T MaxTD1= 4 Len=   56
 NBasis=   396 RedAO= T EigKep=  1.94D-04  NBF=   292   104
 NBsUse=   396 1.00D-06 EigRej= -1.00D+00 NBFU=   292   104
 ExpMin= 1.22D-01 ExpMax= 1.24D+03 ExpMxC= 1.86D+02 IAcc=3 IRadAn=         5 AccDes= 0.00D+00
 Harris functional with IExCor=  402 and IRadAn=       5 diagonalized for initial guess.
 HarFok:  IExCor=  402 AccDes= 0.00D+00 IRadAn=         5 IDoV= 1 UseB2=F ITyADJ=14
 ICtDFT=  3500011 ScaDFX=  1.000000  1.000000  1.000000  1.000000
 FoFCou: FMM=F IPFlag=           0 FMFlag=      100000 FMFlg1=           0
         NFxFlg=           0 DoJE=T BraDBF=F KetDBF=T FulRan=T
         wScrn=  0.000000 ICntrl=       500 IOpCl=  0 I1Cent=   200000004 NGrid=           0
         NMat0=    1 NMatS0=      1 NMatT0=    0 NMatD0=    1 NMtDS0=    0 NMtDT0=    0
 Petite list used in FoFCou.
 Initial guess orbital symmetries:
       Occupied  (A') (A') (A') (A') (A') (A') (A') (A') (A') (A')
                 (A') (A') (A') (A') (A') (A') (A') (A') (A') (A')
                 (A') (A') (A') (A') (A') (A') (A') (A') (A') (A')
                 (A') (A') (A') (A') (A') (A') (A') (A') (A') (A')
                 (A') (A') (A') (A') (A') (A') (A') (A') (A') (A')
                 (A') (A') (A') (A') (A') (A') (A') (A') (A') (A')
                 (A') (A') (A') (A') (A') (A") (A') (A') (A") (A')
                 (A') (A") (A') (A') (A') (A") (A') (A") (A") (A")
                 (A") (A") (A") (A") (A") (A")
       Virtual   (A") (A") (A") (A") (A") (A") (A") (A") (A") (A")
                 (A') (A') (A') (A') (A") (A') (A') (A') (A') (A')
                 (A") (A') (A') (A') (A') (A") (A') (A') (A') (A')
                 (A') (A') (A') (A') (A') (A') (A') (A') (A') (A')
                 (A') (A') (A') (A') (A') (A') (A') (A') (A') (A')
                 (A') (A') (A') (A') (A') (A') (A') (A') (A') (A')
                 (A') (A') (A') (A') (A') (A') (A") (A') (A') (A")
                 (A') (A') (A') (A") (A') (A") (A') (A") (A') (A')
                 (A") (A') (A") (A') (A') (A") (A') (A") (A') (A')
                 (A") (A") (A') (A") (A") (A") (A") (A') (A') (A")
                 (A") (A') (A') (A') (A') (A') (A") (A') (A') (A')
                 (A') (A') (A') (A') (A') (A") (A") (A") (A') (A')
                 (A') (A') (A') (A') (A") (A') (A') (A") (A') (A')
                 (A') (A') (A") (A') (A') (A') (A') (A') (A") (A')
                 (A') (A") (A') (A') (A') (A') (A') (A') (A') (A')
                 (A') (A') (A') (A') (A') (A') (A') (A') (A') (A")
                 (A") (A') (A") (A") (A") (A') (A") (A') (A') (A')
                 (A') (A") (A') (A') (A") (A') (A") (A') (A') (A")
                 (A") (A') (A") (A') (A') (A") (A") (A") (A') (A")
                 (A") (A") (A") (A") (A") (A') (A') (A') (A') (A')
                 (A') (A') (A') (A') (A') (A') (A') (A') (A") (A')
                 (A") (A') (A") (A') (A') (A') (A') (A') (A") (A')
                 (A') (A') (A") (A') (A') (A') (A') (A') (A") (A')
                 (A') (A") (A') (A") (A') (A') (A') (A') (A") (A')
                 (A') (A') (A") (A') (A') (A") (A') (A') (A") (A")
                 (A') (A') (A") (A") (A') (A") (A') (A") (A") (A")
                 (A') (A") (A") (A") (A") (A") (A') (A") (A') (A')
                 (A') (A') (A') (A') (A') (A") (A') (A') (A') (A")
                 (A') (A") (A') (A') (A") (A') (A') (A') (A') (A")
                 (A") (A') (A') (A') (A') (A') (A') (A') (A') (A')
                 (A') (A') (A') (A') (A') (A') (A') (A') (A') (A')
 The electronic state of the initial guess is 1-A'.
 Requested convergence on RMS density matrix=1.00D-08 within 128 cycles.
 Requested convergence on MAX density matrix=1.00D-06.
 Requested convergence on             energy=1.00D-06.
 No special actions if energy rises.
 Integral accuracy reduced to 1.0D-05 until final iterations.
 Initial convergence to 1.0D-05 achieved.  Increase integral accuracy.
 SCF Done:  E(RB3LYP) =  -999.815914339     A.U. after   18 cycles
            NFock= 18  Conv=0.37D-08     -V/T= 2.0105

 **********************************************************************

            Population analysis using the SCF Density.

 **********************************************************************

 Orbital symmetries:
       Occupied  (A') (A') (A') (A') (A') (A') (A') (A') (A') (A')
                 (A') (A') (A') (A') (A') (A') (A') (A') (A') (A')
                 (A') (A') (A') (A') (A') (A') (A') (A') (A') (A')
                 (A') (A') (A') (A') (A') (A') (A') (A') (A') (A')
                 (A') (A') (A') (A') (A') (A') (A') (A') (A') (A')
                 (A') (A') (A') (A') (A') (A') (A') (A') (A') (A')
                 (A') (A") (A') (A') (A') (A") (A') (A') (A') (A")
                 (A') (A') (A') (A") (A') (A') (A') (A") (A") (A")
                 (A") (A") (A") (A") (A") (A")
       Virtual   (A") (A") (A") (A") (A") (A") (A") (A') (A") (A')
                 (A') (A') (A") (A') (A') (A') (A") (A') (A') (A')
                 (A') (A') (A") (A') (A') (A') (A") (A') (A') (A")
                 (A') (A') (A') (A') (A') (A') (A') (A') (A') (A')
                 (A') (A') (A') (A') (A') (A') (A') (A') (A') (A')
                 (A') (A') (A') (A') (A') (A') (A') (A') (A') (A')
                 (A') (A') (A') (A") (A') (A') (A") (A') (A') (A")
                 (A') (A') (A') (A") (A') (A") (A') (A') (A') (A")
                 (A') (A') (A") (A") (A") (A') (A') (A') (A") (A')
                 (A") (A') (A") (A") (A") (A') (A") (A") (A") (A')
                 (A") (A') (A') (A') (A') (A') (A') (A') (A') (A")
                 (A") (A") (A') (A') (A') (A') (A') (A') (A") (A')
                 (A') (A") (A') (A') (A') (A') (A') (A") (A') (A')
                 (A') (A') (A') (A') (A') (A') (A") (A') (A') (A")
                 (A') (A') (A') (A') (A') (A') (A') (A') (A') (A')
                 (A') (A') (A') (A') (A') (A') (A') (A') (A') (A')
                 (A") (A") (A') (A") (A') (A") (A") (A') (A") (A')
                 (A') (A') (A') (A") (A') (A') (A") (A') (A') (A")
                 (A') (A") (A') (A") (A') (A") (A") (A") (A") (A')
                 (A") (A") (A") (A") (A") (A') (A") (A') (A') (A')
                 (A') (A') (A') (A') (A') (A') (A') (A") (A') (A")
                 (A') (A") (A') (A') (A') (A') (A') (A') (A") (A')
                 (A') (A") (A') (A') (A') (A') (A') (A") (A') (A')
                 (A') (A") (A') (A") (A') (A') (A') (A') (A") (A')
                 (A') (A') (A") (A') (A') (A") (A') (A") (A') (A")
                 (A') (A") (A') (A") (A') (A") (A') (A") (A") (A")
                 (A") (A") (A') (A") (A") (A") (A') (A") (A') (A')
                 (A') (A') (A') (A') (A') (A") (A') (A') (A') (A")
                 (A") (A") (A') (A') (A') (A') (A') (A") (A') (A')
                 (A") (A') (A') (A') (A') (A') (A') (A') (A') (A')
                 (A') (A') (A') (A') (A') (A') (A') (A') (A') (A')
 The electronic state is 1-A'.
 Alpha  occ. eigenvalues --  -10.20403 -10.20342 -10.20327 -10.20306 -10.20286
 Alpha  occ. eigenvalues --  -10.20256 -10.19602 -10.19570 -10.19471 -10.19444
 Alpha  occ. eigenvalues --  -10.19357 -10.19295 -10.19287 -10.19090 -10.19057
 Alpha  occ. eigenvalues --  -10.19028 -10.19027 -10.18997 -10.18962 -10.18951
 Alpha  occ. eigenvalues --  -10.18913 -10.18905 -10.18904 -10.18902 -10.18901
 Alpha  occ. eigenvalues --  -10.18876  -0.89092  -0.87925  -0.85946  -0.83329
 Alpha  occ. eigenvalues --   -0.81055  -0.79763  -0.77702  -0.76798  -0.75534
 Alpha  occ. eigenvalues --   -0.73904  -0.72362  -0.71206  -0.69716  -0.65061
 Alpha  occ. eigenvalues --   -0.63887  -0.63162  -0.61939  -0.60529  -0.59685
 Alpha  occ. eigenvalues --   -0.58883  -0.55661  -0.53620  -0.53189  -0.52193
 Alpha  occ. eigenvalues --   -0.50402  -0.50271  -0.49301  -0.48009  -0.46532
 Alpha  occ. eigenvalues --   -0.45893  -0.44892  -0.43869  -0.43528  -0.43312
 Alpha  occ. eigenvalues --   -0.42985  -0.41971  -0.41933  -0.41097  -0.40809
 Alpha  occ. eigenvalues --   -0.40517  -0.40410  -0.39453  -0.38799  -0.38085
 Alpha  occ. eigenvalues --   -0.36889  -0.36251  -0.34989  -0.34973  -0.34220
 Alpha  occ. eigenvalues --   -0.33397  -0.32733  -0.32493  -0.31601  -0.29700
 Alpha  occ. eigenvalues --   -0.28399  -0.26868  -0.24839  -0.23350  -0.21747
 Alpha  occ. eigenvalues --   -0.19691
 Alpha virt. eigenvalues --   -0.07480  -0.05388  -0.04082  -0.02621  -0.00124
 Alpha virt. eigenvalues --    0.01310   0.02752   0.05489   0.05930   0.06287
 Alpha virt. eigenvalues --    0.06540   0.07714   0.07729   0.07911   0.09520
 Alpha virt. eigenvalues --    0.10100   0.10909   0.11387   0.12014   0.12886
 Alpha virt. eigenvalues --    0.13993   0.15261   0.15599   0.16251   0.17984
 Alpha virt. eigenvalues --    0.19607   0.20386   0.21306   0.22293   0.23375
 Alpha virt. eigenvalues --    0.23532   0.23810   0.25100   0.25905   0.26102
 Alpha virt. eigenvalues --    0.26589   0.27345   0.27976   0.28593   0.28803
 Alpha virt. eigenvalues --    0.29694   0.29893   0.30809   0.31245   0.31660
 Alpha virt. eigenvalues --    0.32474   0.33504   0.33638   0.34471   0.34858
 Alpha virt. eigenvalues --    0.35604   0.35922   0.36449   0.37383   0.38282
 Alpha virt. eigenvalues --    0.38507   0.39324   0.39769   0.40259   0.41480
 Alpha virt. eigenvalues --    0.42416   0.43036   0.43795   0.44369   0.44711
 Alpha virt. eigenvalues --    0.45147   0.45391   0.45601   0.46016   0.46828
 Alpha virt. eigenvalues --    0.47052   0.47163   0.47955   0.48142   0.48333
 Alpha virt. eigenvalues --    0.48862   0.49177   0.49652   0.49865   0.49908
 Alpha virt. eigenvalues --    0.50257   0.50344   0.50822   0.52640   0.53564
 Alpha virt. eigenvalues --    0.53967   0.54517   0.55202   0.55683   0.56088
 Alpha virt. eigenvalues --    0.56504   0.56712   0.58206   0.58933   0.59004
 Alpha virt. eigenvalues --    0.60443   0.60995   0.62635   0.63050   0.64348
 Alpha virt. eigenvalues --    0.65256   0.65319   0.65713   0.66800   0.67427
 Alpha virt. eigenvalues --    0.67573   0.68177   0.68342   0.68705   0.69044
 Alpha virt. eigenvalues --    0.69249   0.69744   0.69954   0.70673   0.71220
 Alpha virt. eigenvalues --    0.71863   0.72524   0.72821   0.73183   0.73892
 Alpha virt. eigenvalues --    0.74315   0.74498   0.74823   0.75329   0.76060
 Alpha virt. eigenvalues --    0.76825   0.76944   0.78237   0.78564   0.79273
 Alpha virt. eigenvalues --    0.79586   0.80211   0.80870   0.81165   0.81788
 Alpha virt. eigenvalues --    0.82260   0.82594   0.83675   0.84773   0.84883
 Alpha virt. eigenvalues --    0.85730   0.86936   0.87970   0.90080   0.90849
 Alpha virt. eigenvalues --    0.92130   0.94957   0.97349   0.97824   0.98762
 Alpha virt. eigenvalues --    1.02932   1.08168   1.08882   1.10770   1.12034
 Alpha virt. eigenvalues --    1.13362   1.14763   1.15558   1.18687   1.20210
 Alpha virt. eigenvalues --    1.20942   1.21747   1.21941   1.23343   1.23554
 Alpha virt. eigenvalues --    1.23578   1.25034   1.25478   1.25730   1.26016
 Alpha virt. eigenvalues --    1.27757   1.29884   1.30436   1.33247   1.34313
 Alpha virt. eigenvalues --    1.34867   1.35659   1.36029   1.37649   1.38504
 Alpha virt. eigenvalues --    1.38636   1.40051   1.40329   1.40420   1.41889
 Alpha virt. eigenvalues --    1.41940   1.44407   1.45576   1.45904   1.46093
 Alpha virt. eigenvalues --    1.47921   1.48410   1.48528   1.49094   1.49782
 Alpha virt. eigenvalues --    1.50025   1.50215   1.51545   1.53127   1.54124
 Alpha virt. eigenvalues --    1.56472   1.68054   1.69565   1.70765   1.71755
 Alpha virt. eigenvalues --    1.71912   1.73657   1.73658   1.74949   1.75430
 Alpha virt. eigenvalues --    1.75766   1.77555   1.77951   1.80419   1.82612
 Alpha virt. eigenvalues --    1.83217   1.83794   1.84167   1.85128   1.86361
 Alpha virt. eigenvalues --    1.87279   1.87494   1.88517   1.88941   1.90404
 Alpha virt. eigenvalues --    1.92499   1.94010   1.94343   1.94843   1.99268
 Alpha virt. eigenvalues --    1.99680   1.99896   2.02411   2.03914   2.05779
 Alpha virt. eigenvalues --    2.07186   2.08058   2.08638   2.08672   2.09839
 Alpha virt. eigenvalues --    2.12283   2.12951   2.13179   2.14361   2.15834
 Alpha virt. eigenvalues --    2.16403   2.17861   2.18928   2.19095   2.19646
 Alpha virt. eigenvalues --    2.20661   2.21603   2.22031   2.25177   2.26290
 Alpha virt. eigenvalues --    2.26327   2.27280   2.28024   2.28676   2.29710
 Alpha virt. eigenvalues --    2.33162   2.33990   2.34147   2.34757   2.35760
 Alpha virt. eigenvalues --    2.37029   2.38624   2.39279   2.41389   2.46385
 Alpha virt. eigenvalues --    2.48414   2.48656   2.54438   2.56083   2.57021
 Alpha virt. eigenvalues --    2.57429   2.58480   2.60563   2.60688   2.60738
 Alpha virt. eigenvalues --    2.63532   2.63893   2.64005   2.64825   2.65155
 Alpha virt. eigenvalues --    2.65795   2.67767   2.68297   2.68718   2.69826
 Alpha virt. eigenvalues --    2.70490   2.74024   2.76594   2.76894   2.79507
 Alpha virt. eigenvalues --    2.82577   2.84180   2.88446   2.90717   2.94318
 Alpha virt. eigenvalues --    2.96241   3.00734   3.03879   3.08852   3.26167
 Alpha virt. eigenvalues --    3.33444   3.38028   3.40861   3.49517   3.54887
          Condensed to atoms (all electrons):
               1          2          3          4          5          6
     1  C    5.233496   0.170650   0.141975  -0.154807   0.149557   0.194172
     2  C    0.170650   5.204434   0.246361   0.120796  -0.168859   0.149150
     3  C    0.141975   0.246361   5.440752   0.255707   0.018727  -0.172803
     4  C   -0.154807   0.120796   0.255707   5.547198   0.082008   0.044736
     5  C    0.149557  -0.168859   0.018727   0.082008   5.485736   0.229587
     6  C    0.194172   0.149150  -0.172803   0.044736   0.229587   5.459345
     7  C    0.022131  -0.002237   0.027727   0.027043   0.147916  -0.161468
     8  C   -0.001470   0.000214  -0.003946  -0.139136   0.158690   0.019366
     9  C   -0.000003   0.000258   0.023299   0.005758  -0.176989  -0.001014
    10  C   -0.000001   0.000001  -0.000376   0.026249  -0.001065   0.000055
    11  C   -0.000000   0.000005   0.000033  -0.003871  -0.000065  -0.000001
    12  C    0.000000   0.000000   0.000002   0.000110  -0.000007  -0.000000
    13  C   -0.000000   0.000000  -0.000000  -0.000005   0.000000   0.000000
    14  C    0.000000  -0.000000   0.000001   0.000013  -0.000000   0.000000
    15  C    0.000000   0.000000   0.000000   0.000000   0.000000  -0.000000
    16  C    0.000000   0.000000   0.000000   0.000000  -0.000000   0.000000
    17  C   -0.000000   0.000000  -0.000000  -0.000000   0.000000   0.000000
    18  C    0.000000  -0.000000   0.000000  -0.000000  -0.000000   0.000000
    19  C   -0.000000   0.000000  -0.000000   0.000000  -0.000000  -0.000000
    20  C    0.000000  -0.000000   0.000000   0.000000   0.000000  -0.000000
    21  C   -0.000000   0.000000   0.000000  -0.000003  -0.000000   0.000000
    22  C    0.000000   0.000000   0.000002  -0.000097   0.000001  -0.000000
    23  C    0.000000  -0.000002  -0.000080   0.000094   0.000010   0.000000
    24  C    0.000005  -0.000076  -0.000012   0.020453   0.000538  -0.000003
    25  C    0.000007   0.000378  -0.031120  -0.143198   0.022910  -0.000253
    26  C   -0.004066   0.021182  -0.143856   0.213740   0.009401   0.026261
    27  H    0.436438  -0.084231   0.015189  -0.001204   0.015744  -0.079055
    28  H   -0.085783   0.435803  -0.074952   0.015769  -0.001659   0.015556
    29  H    0.015602  -0.080118   0.415868  -0.048300   0.018832  -0.001872
    30  H   -0.083142   0.016219  -0.002260   0.016888  -0.080017   0.440888
    31  H    0.001038  -0.000069  -0.000296   0.015945  -0.088049  -0.020153
    32  H    0.000013  -0.000002   0.000055  -0.001703   0.016911  -0.000578
    33  H    0.000000  -0.000000   0.000011  -0.000228  -0.000069  -0.000001
    34  H   -0.000000   0.000000   0.000000   0.000001  -0.000000   0.000000
    35  H   -0.000000   0.000000   0.000000   0.000000  -0.000000  -0.000000
    36  H    0.000000  -0.000000   0.000000   0.000000  -0.000000   0.000000
    37  H    0.000000  -0.000000  -0.000000   0.000000  -0.000000  -0.000000
    38  H   -0.000000   0.000000  -0.000000  -0.000000   0.000000   0.000000
    39  H   -0.000000   0.000000   0.000000  -0.000000   0.000000   0.000000
    40  H   -0.000000  -0.000000  -0.000000  -0.000000  -0.000000   0.000000
    41  H    0.000000   0.000001   0.000037  -0.000060  -0.000001   0.000000
    42  H   -0.000043   0.000898   0.012509  -0.038413  -0.001146   0.000034
               7          8          9         10         11         12
     1  C    0.022131  -0.001470  -0.000003  -0.000001  -0.000000   0.000000
     2  C   -0.002237   0.000214   0.000258   0.000001   0.000005   0.000000
     3  C    0.027727  -0.003946   0.023299  -0.000376   0.000033   0.000002
     4  C    0.027043  -0.139136   0.005758   0.026249  -0.003871   0.000110
     5  C    0.147916   0.158690  -0.176989  -0.001065  -0.000065  -0.000007
     6  C   -0.161468   0.019366  -0.001014   0.000055  -0.000001  -0.000000
     7  C    5.522330   0.184387   0.161143   0.020600  -0.001491   0.000023
     8  C    0.184387   5.535515   0.139250  -0.165157   0.022205  -0.001271
     9  C    0.161143   0.139250   5.535250   0.203528   0.163993   0.022503
    10  C    0.020600  -0.165157   0.203528   5.779999   0.197954  -0.167103
    11  C   -0.001491   0.022205   0.163993   0.197954   5.547946   0.146584
    12  C    0.000023  -0.001271   0.022503  -0.167103   0.146584   5.504798
    13  C   -0.000000   0.000022  -0.001441   0.020818   0.159070   0.221781
    14  C    0.000000  -0.000006  -0.000130  -0.000736  -0.181081   0.140928
    15  C    0.000000  -0.000000  -0.000003   0.000084  -0.003849   0.022333
    16  C    0.000000  -0.000000   0.000000  -0.000002  -0.000117   0.001192
    17  C   -0.000000   0.000000   0.000000  -0.000000   0.000007  -0.000094
    18  C    0.000000  -0.000000  -0.000000   0.000000  -0.000001   0.000007
    19  C   -0.000000   0.000000   0.000000  -0.000000   0.000003  -0.000004
    20  C   -0.000000   0.000000  -0.000001   0.000002  -0.000388   0.000188
    21  C    0.000000   0.000000   0.000006  -0.000000   0.000239  -0.000081
    22  C   -0.000000   0.000002   0.000061  -0.000507   0.027251  -0.003818
    23  C   -0.000004   0.000108  -0.003919   0.025331   0.019592  -0.153946
    24  C    0.000035  -0.001175  -0.149091   0.034961   0.013473   0.034907
    25  C   -0.003782   0.027111   0.004790  -0.148922   0.005234   0.028098
    26  C   -0.136597   0.030488   0.031883   0.034265  -0.150856  -0.001077
    27  H   -0.000542   0.000010  -0.000000   0.000000   0.000000  -0.000000
    28  H    0.000031  -0.000001   0.000008  -0.000000   0.000000   0.000000
    29  H   -0.000265  -0.000023  -0.001581   0.000022  -0.000018  -0.000001
    30  H   -0.022514   0.001191  -0.000096  -0.000001   0.000000  -0.000000
    31  H    0.442945  -0.078962   0.016678  -0.000613   0.000013  -0.000000
    32  H   -0.081092   0.444152  -0.087519  -0.022145   0.001207  -0.000066
    33  H    0.001086  -0.020816  -0.086030   0.446340  -0.086670  -0.021072
    34  H    0.000001  -0.000066   0.001233  -0.021899  -0.091203   0.444738
    35  H   -0.000000  -0.000000   0.000017  -0.000662   0.017285  -0.078058
    36  H    0.000000  -0.000000  -0.000000  -0.000000  -0.000079   0.001543
    37  H   -0.000000   0.000000  -0.000000  -0.000000   0.000000  -0.000001
    38  H   -0.000000   0.000000   0.000000  -0.000000   0.000000  -0.000000
    39  H   -0.000000  -0.000000   0.000000  -0.000000   0.000000  -0.000000
    40  H    0.000000   0.000000   0.000000  -0.000000   0.000011  -0.000001
    41  H    0.000000  -0.000001  -0.000028   0.000020  -0.001478  -0.000028
    42  H   -0.000025  -0.000362   0.020108  -0.001835   0.020746  -0.000392
              13         14         15         16         17         18
     1  C   -0.000000   0.000000   0.000000   0.000000  -0.000000   0.000000
     2  C    0.000000  -0.000000   0.000000   0.000000   0.000000  -0.000000
     3  C   -0.000000   0.000001   0.000000   0.000000  -0.000000   0.000000
     4  C   -0.000005   0.000013   0.000000   0.000000  -0.000000  -0.000000
     5  C    0.000000  -0.000000   0.000000  -0.000000   0.000000  -0.000000
     6  C    0.000000   0.000000  -0.000000   0.000000   0.000000   0.000000
     7  C   -0.000000   0.000000   0.000000   0.000000  -0.000000   0.000000
     8  C    0.000022  -0.000006  -0.000000  -0.000000   0.000000  -0.000000
     9  C   -0.001441  -0.000130  -0.000003   0.000000   0.000000  -0.000000
    10  C    0.020818  -0.000736   0.000084  -0.000002  -0.000000   0.000000
    11  C    0.159070  -0.181081  -0.003849  -0.000117   0.000007  -0.000001
    12  C    0.221781   0.140928   0.022333   0.001192  -0.000094   0.000007
    13  C    5.515629   0.172449  -0.145872  -0.028176   0.000362   0.000013
    14  C    0.172449   5.612802   0.241265  -0.148106   0.022198  -0.004467
    15  C   -0.145872   0.241265   5.547481   0.250559   0.123327  -0.156231
    16  C   -0.028176  -0.148106   0.250559   5.441029   0.249486   0.145305
    17  C    0.000362   0.022198   0.123327   0.249486   5.212358   0.156969
    18  C    0.000013  -0.004467  -0.156231   0.145305   0.156969   5.241659
    19  C   -0.000366   0.026274   0.045995  -0.175751   0.151178   0.196344
    20  C    0.025065   0.009307   0.058304   0.026885  -0.172410   0.154164
    21  C   -0.003422  -0.146011   0.024124   0.028764  -0.002232   0.022188
    22  C    0.028218  -0.005602  -0.135870  -0.003823   0.000171  -0.001417
    23  C    0.006512   0.166974  -0.001865   0.019031   0.000428  -0.000042
    24  C   -0.140365   0.011008   0.025410   0.000011   0.000001  -0.000002
    25  C   -0.003837   0.021161   0.000020   0.000008  -0.000000   0.000000
    26  C   -0.000020   0.000790   0.000002  -0.000000  -0.000000   0.000000
    27  H    0.000000  -0.000000   0.000000   0.000000   0.000000  -0.000000
    28  H   -0.000000  -0.000000   0.000000  -0.000000   0.000000  -0.000000
    29  H    0.000000  -0.000001   0.000000   0.000000  -0.000000   0.000000
    30  H    0.000000  -0.000000   0.000000  -0.000000   0.000000   0.000000
    31  H    0.000000  -0.000000   0.000000   0.000000  -0.000000   0.000000
    32  H    0.000001  -0.000000  -0.000000  -0.000000   0.000000  -0.000000
    33  H    0.001079  -0.000064  -0.000001  -0.000000  -0.000000   0.000000
    34  H   -0.077668   0.017117  -0.000386   0.000006  -0.000001   0.000000
    35  H    0.424604  -0.058416  -0.039435   0.009095   0.001363  -0.000069
    36  H    0.011550  -0.040972  -0.048413   0.417357  -0.081695   0.015890
    37  H    0.000002  -0.000261   0.015807  -0.074628   0.436663  -0.086764
    38  H   -0.000000   0.000055  -0.001169   0.015150  -0.084765   0.436647
    39  H    0.000009  -0.000157   0.017040  -0.002339   0.016370  -0.083432
    40  H    0.000046  -0.001891   0.016464  -0.000331  -0.000067   0.001028
    41  H   -0.000307   0.017985  -0.001669   0.000047  -0.000002   0.000017
    42  H   -0.000000  -0.001582   0.000032   0.000000   0.000000  -0.000000
              19         20         21         22         23         24
     1  C   -0.000000   0.000000  -0.000000   0.000000   0.000000   0.000005
     2  C    0.000000  -0.000000   0.000000   0.000000  -0.000002  -0.000076
     3  C   -0.000000   0.000000   0.000000   0.000002  -0.000080  -0.000012
     4  C    0.000000   0.000000  -0.000003  -0.000097   0.000094   0.020453
     5  C   -0.000000   0.000000  -0.000000   0.000001   0.000010   0.000538
     6  C   -0.000000  -0.000000   0.000000  -0.000000   0.000000  -0.000003
     7  C   -0.000000  -0.000000   0.000000  -0.000000  -0.000004   0.000035
     8  C    0.000000   0.000000   0.000000   0.000002   0.000108  -0.001175
     9  C    0.000000  -0.000001   0.000006   0.000061  -0.003919  -0.149091
    10  C   -0.000000   0.000002  -0.000000  -0.000507   0.025331   0.034961
    11  C    0.000003  -0.000388   0.000239   0.027251   0.019592   0.013473
    12  C   -0.000004   0.000188  -0.000081  -0.003818  -0.153946   0.034907
    13  C   -0.000366   0.025065  -0.003422   0.028218   0.006512  -0.140365
    14  C    0.026274   0.009307  -0.146011  -0.005602   0.166974   0.011008
    15  C    0.045995   0.058304   0.024124  -0.135870  -0.001865   0.025410
    16  C   -0.175751   0.026885   0.028764  -0.003823   0.019031   0.000011
    17  C    0.151178  -0.172410  -0.002232   0.000171   0.000428   0.000001
    18  C    0.196344   0.154164   0.022188  -0.001417  -0.000042  -0.000002
    19  C    5.465760   0.216647  -0.162435   0.019432  -0.000659   0.000071
    20  C    0.216647   5.489592   0.175716   0.149565  -0.169068  -0.003431
    21  C   -0.162435   0.175716   5.473989   0.232035   0.131189   0.020850
    22  C    0.019432   0.149565   0.232035   5.504315   0.190305  -0.143145
    23  C   -0.000659  -0.169068   0.131189   0.190305   5.600169   0.230553
    24  C    0.000071  -0.003431   0.020850  -0.143145   0.230553   5.512535
    25  C   -0.000002  -0.000092   0.001019  -0.032608  -0.144562   0.303616
    26  C   -0.000000   0.000007  -0.000091  -0.000074   0.020387   0.098670
    27  H    0.000000  -0.000000   0.000000   0.000000  -0.000000  -0.000000
    28  H    0.000000  -0.000000  -0.000000  -0.000000  -0.000000  -0.000001
    29  H   -0.000000   0.000000   0.000001   0.000042  -0.000059   0.001787
    30  H   -0.000000   0.000000   0.000000   0.000000   0.000000  -0.000000
    31  H    0.000000   0.000000   0.000000   0.000000   0.000000  -0.000001
    32  H    0.000000  -0.000000   0.000000   0.000000   0.000001  -0.000014
    33  H   -0.000000   0.000000  -0.000000   0.000012  -0.000207   0.018536
    34  H   -0.000000   0.000010  -0.000001   0.000049  -0.001867   0.016797
    35  H    0.000038  -0.001003  -0.000052  -0.000287   0.017780  -0.001639
    36  H   -0.001921   0.019590  -0.000286  -0.000020  -0.001606   0.000037
    37  H    0.015668  -0.001734   0.000028  -0.000001   0.000007  -0.000000
    38  H   -0.078784   0.015694  -0.000559   0.000010  -0.000000   0.000000
    39  H    0.441469  -0.080786  -0.022691   0.001107  -0.000070  -0.000001
    40  H   -0.020197  -0.090504   0.442466  -0.076126   0.016968  -0.000364
    41  H   -0.000629   0.017091  -0.077782   0.420215  -0.054670  -0.040934
    42  H    0.000000  -0.000060   0.001281   0.013940  -0.040469  -0.052140
              25         26         27         28         29         30
     1  C    0.000007  -0.004066   0.436438  -0.085783   0.015602  -0.083142
     2  C    0.000378   0.021182  -0.084231   0.435803  -0.080118   0.016219
     3  C   -0.031120  -0.143856   0.015189  -0.074952   0.415868  -0.002260
     4  C   -0.143198   0.213740  -0.001204   0.015769  -0.048300   0.016888
     5  C    0.022910   0.009401   0.015744  -0.001659   0.018832  -0.080017
     6  C   -0.000253   0.026261  -0.079055   0.015556  -0.001872   0.440888
     7  C   -0.003782  -0.136597  -0.000542   0.000031  -0.000265  -0.022514
     8  C    0.027111   0.030488   0.000010  -0.000001  -0.000023   0.001191
     9  C    0.004790   0.031883  -0.000000   0.000008  -0.001581  -0.000096
    10  C   -0.148922   0.034265   0.000000  -0.000000   0.000022  -0.000001
    11  C    0.005234  -0.150856   0.000000   0.000000  -0.000018   0.000000
    12  C    0.028098  -0.001077  -0.000000   0.000000  -0.000001  -0.000000
    13  C   -0.003837  -0.000020   0.000000  -0.000000   0.000000   0.000000
    14  C    0.021161   0.000790  -0.000000  -0.000000  -0.000001  -0.000000
    15  C    0.000020   0.000002   0.000000   0.000000   0.000000   0.000000
    16  C    0.000008  -0.000000   0.000000  -0.000000   0.000000  -0.000000
    17  C   -0.000000  -0.000000   0.000000   0.000000  -0.000000   0.000000
    18  C    0.000000   0.000000  -0.000000  -0.000000   0.000000   0.000000
    19  C   -0.000002  -0.000000   0.000000   0.000000  -0.000000  -0.000000
    20  C   -0.000092   0.000007  -0.000000  -0.000000   0.000000   0.000000
    21  C    0.001019  -0.000091   0.000000  -0.000000   0.000001   0.000000
    22  C   -0.032608  -0.000074   0.000000  -0.000000   0.000042   0.000000
    23  C   -0.144562   0.020387  -0.000000  -0.000000  -0.000059   0.000000
    24  C    0.303616   0.098670  -0.000000  -0.000001   0.001787  -0.000000
    25  C    5.688673   0.305813  -0.000000  -0.000004   0.010898   0.000009
    26  C    0.305813   5.516522   0.000053  -0.000293  -0.039887  -0.000151
    27  H   -0.000000   0.000053   0.671716  -0.012347  -0.000354  -0.012556
    28  H   -0.000004  -0.000293  -0.012347   0.671339  -0.013428  -0.000340
    29  H    0.010898  -0.039887  -0.000354  -0.013428   0.677480   0.000028
    30  H    0.000009  -0.000151  -0.012556  -0.000340   0.000028   0.678027
    31  H    0.000059  -0.001592  -0.000019  -0.000001   0.000011   0.006584
    32  H   -0.000364   0.016595  -0.000000   0.000000   0.000000  -0.000019
    33  H   -0.002978   0.018772  -0.000000   0.000000   0.000001  -0.000000
    34  H   -0.000405  -0.000017   0.000000   0.000000  -0.000000   0.000000
    35  H    0.000052  -0.000002   0.000000  -0.000000   0.000000  -0.000000
    36  H    0.000000   0.000000  -0.000000  -0.000000   0.000000  -0.000000
    37  H    0.000000  -0.000000   0.000000  -0.000000   0.000000  -0.000000
    38  H   -0.000000  -0.000000   0.000000   0.000000  -0.000000   0.000000
    39  H   -0.000000  -0.000000   0.000000   0.000000  -0.000000   0.000000
    40  H   -0.000002  -0.000001   0.000000   0.000000  -0.000000  -0.000000
    41  H    0.010427   0.002126  -0.000000  -0.000000   0.000061   0.000000
    42  H    0.392271  -0.055496  -0.000000   0.000036   0.001915   0.000000
              31         32         33         34         35         36
     1  C    0.001038   0.000013   0.000000  -0.000000  -0.000000   0.000000
     2  C   -0.000069  -0.000002  -0.000000   0.000000   0.000000  -0.000000
     3  C   -0.000296   0.000055   0.000011   0.000000   0.000000   0.000000
     4  C    0.015945  -0.001703  -0.000228   0.000001   0.000000   0.000000
     5  C   -0.088049   0.016911  -0.000069  -0.000000  -0.000000  -0.000000
     6  C   -0.020153  -0.000578  -0.000001   0.000000  -0.000000   0.000000
     7  C    0.442945  -0.081092   0.001086   0.000001  -0.000000   0.000000
     8  C   -0.078962   0.444152  -0.020816  -0.000066  -0.000000  -0.000000
     9  C    0.016678  -0.087519  -0.086030   0.001233   0.000017  -0.000000
    10  C   -0.000613  -0.022145   0.446340  -0.021899  -0.000662  -0.000000
    11  C    0.000013   0.001207  -0.086670  -0.091203   0.017285  -0.000079
    12  C   -0.000000  -0.000066  -0.021072   0.444738  -0.078058   0.001543
    13  C    0.000000   0.000001   0.001079  -0.077668   0.424604   0.011550
    14  C   -0.000000  -0.000000  -0.000064   0.017117  -0.058416  -0.040972
    15  C    0.000000  -0.000000  -0.000001  -0.000386  -0.039435  -0.048413
    16  C    0.000000  -0.000000  -0.000000   0.000006   0.009095   0.417357
    17  C   -0.000000   0.000000  -0.000000  -0.000001   0.001363  -0.081695
[...]
 50,0.00124866,0.00826137,-0.00003935,-0.00004596,0.00022261,-0.0000376
 2,-0.00006726,-0.00051568,0.00000384,0.00004029,0.00009651,-0.00000482
 ,0.00000322,0.00005821,0.00000281,-0.00000121,-0.00000907,-0.00000088,
 0.00000026,0.00001637,0.00000016,-0.00000007,0.00000053,0.,-0.00000009
 ,0.00000077,-0.00000005,0.00000035,0.00000153,0.00000018,0.00000019,0.
 00000053,0.00000030,0.00000018,0.00000174,-0.00000005,0.00000030,0.000
 00071,-0.00000015,0.00000034,0.00000112,0.00000030,0.00000046,0.000000
 34,0.00000091,-0.00000594,0.00005270,0.00016475,0.00007870,0.00014274,
 -0.00010843,-0.00055610,-0.00314077,-0.01634903,-0.01060028,0.02729466
 ,-0.00000121,0.00000064,-0.00000008,0.00000203,0.00000223,-0.00000032,
 -0.00000904,-0.00000284,0.00000042,0.00000257,-0.00000335,0.00000040,0
 .00000081,-0.00000253,0.00000031,0.00000125,0.00000185,-0.00000025,-0.
 00000567,-0.00000282,0.00000040,0.00000248,0.00000559,-0.00000073,-0.0
 0000668,-0.00000236,0.00000034,0.00000196,0.00001079,-0.00000134,0.000
 01450,-0.00000449,0.00000035,0.00002083,-0.00011496,0.00001414,-0.0004
 2441,0.00003345,0.00000186,0.00032789,-0.00141018,0.00017455,-0.004792
 07,-0.00059258,0.00017770,-0.00092948,0.00021484,-0.00002221,-0.003793
 66,0.00222379,-0.00015690,0.00707703,0.02643911,-0.00331594,-0.0614561
 7,-0.02850894,0.00379551,0.00043385,-0.02817668,0.00354003,0.00118356,
 -0.00192674,0.00019135,0.00016904,0.00038235,-0.00004963,0.00016318,-0
 .00022259,0.00002443,0.00000120,0.00013447,-0.00001628,-0.00001436,-0.
 00003358,0.00000426,-0.00000094,0.00001187,-0.00000147,0.00000040,0.00
 000004,0.,-0.00000176,0.00000129,-0.00000013,0.00000124,-0.00000009,0.
 00000003,0.00000048,0.00000049,-0.00000006,0.00000032,0.00000059,-0.00
 000007,0.00000014,0.00000039,-0.00000004,0.00000231,0.00000164,-0.0000
 0023,-0.00003957,-0.00001744,0.00000215,0.00001862,-0.00000769,0.00000
 082,0.00008372,-0.00002648,-0.00000896,0.00017496,0.00121924,-0.000151
 26,0.00117453,-0.00062067,0.00001438,0.06106170,-0.00000682,0.00000297
 ,-0.00000041,0.00000132,-0.00000061,-0.00000016,-0.00001428,0.00000772
 ,-0.00000110,0.00001445,-0.00002147,0.00000260,-0.00000761,-0.00001079
 ,0.00000144,0.00000624,0.00001050,-0.00000145,-0.00001834,-0.00000827,
 0.00000111,0.00000917,0.00002678,-0.00000350,-0.00001273,-0.00000066,-
 0.00000009,0.00000521,0.00002422,-0.00000284,-0.00002267,0.00001354,-0
 .00000211,0.00005096,-0.00006856,0.00000860,-0.00024560,0.00000736,0.0
 0002076,0.00053484,-0.00049341,0.00008571,-0.00214167,0.00118701,0.000
 52120,0.00002726,0.00079814,-0.00016115,0.00377067,0.00018992,0.000897
 04,-0.00491988,-0.01387373,0.00234348,-0.02866068,-0.32623257,0.036211
 32,0.00067395,-0.00941530,0.00162735,0.00220613,0.00051497,-0.00051813
 ,-0.00040785,0.00013962,-0.00001662,0.00010327,0.00023503,-0.00004903,
 -0.00002221,0.00006948,-0.00000289,-0.00001336,-0.00004152,0.00000450,
 -0.00000755,-0.00000822,0.00000105,-0.00000364,0.00000235,-0.00000016,
 -0.00000143,0.00000542,-0.00000046,0.00000383,-0.00000528,0.00000105,-
 0.00000280,-0.00000177,0.00000032,-0.00000464,0.00000118,-0.00000002,-
 0.00000025,-0.00000447,0.00000066,0.00000099,-0.00000590,0.00000075,-0
 .00002630,-0.00001530,-0.00000303,0.00002020,0.00001338,-0.00000124,-0
 .00001819,-0.00012277,-0.00012060,-0.00027109,-0.00071965,0.00011938,0
 .00013149,0.00085113,-0.00071245,0.03005370,0.34638869,0.00000085,-0.0
 0000049,-0.00000083,-0.00000020,-0.00000017,-0.00000174,0.00000185,-0.
 00000122,-0.00000220,-0.00000182,0.00000279,0.00000032,0.00000094,0.00
 000139,-0.00000002,-0.00000080,-0.00000140,-0.00000045,0.00000233,0.00
 000095,-0.00000100,-0.00000117,-0.00000347,-0.00000017,0.00000163,-0.0
 0000020,-0.00000245,-0.00000065,-0.00000290,0.00000219,0.00000261,-0.0
 0000230,-0.00000506,-0.00000651,0.00001033,0.00000364,0.00003657,0.000
 01786,0.00015107,-0.00006746,0.00010595,0.00022768,0.00037044,0.000505
 08,0.00513010,0.00000113,-0.00016310,-0.00047448,-0.00034937,0.0009131
 4,0.00760496,0.00058584,0.00201709,0.00429245,0.00381439,0.03620974,-0
 .04214113,-0.00004965,0.00192764,0.00348093,-0.00032287,-0.00047511,-0
 .00340227,0.00004869,-0.00002484,-0.00002548,-0.00001611,-0.00004564,-
 0.00014456,0.00000321,-0.00000452,0.00004494,0.00000175,0.00000471,-0.
 00000705,0.00000095,0.00000085,-0.00000052,0.00000046,-0.00000019,0.00
 000082,0.00000021,-0.00000049,0.00000167,-0.00000045,0.00000109,0.0000
 0334,0.00000035,0.00000029,0.00000054,0.00000058,-0.00000008,0.0000006
 2,0.00000004,0.00000065,0.00000070,-0.00000014,0.00000074,0.00000009,0
 .00000325,-0.00000312,-0.00004147,-0.00000265,-0.00000095,0.00000522,-
 0.00000999,-0.00012051,-0.00107846,0.00003417,0.00010387,0.00020386,-0
 .00007921,-0.00070462,-0.00477539,-0.00410931,-0.04023638,0.03056806,-
 0.00000801,0.00001523,-0.00000182,-0.00000333,0.00000043,-0.00000010,-
 0.00004012,-0.00000614,0.00000114,0.00000823,-0.00001511,0.00000162,-0
 .00000757,0.00001497,-0.00000178,0.00001362,0.00000515,-0.00000081,-0.
 00001193,-0.00002536,0.00000326,-0.00000461,0.00002967,-0.00000365,0.0
 0004447,-0.00003672,0.00000475,-0.00001152,-0.00013281,0.00001649,-0.0
 0035574,-0.00007817,0.00000754,-0.00010279,0.00003528,-0.00000198,0.00
 017197,0.00006575,-0.00001934,-0.00077700,0.00008899,-0.00000809,-0.00
 397012,0.00166420,-0.00012154,0.00050512,0.00117159,-0.00015015,0.0001
 4889,0.00014311,-0.00002055,0.00014107,-0.00039829,0.00004734,0.001203
 91,0.00170587,-0.00025268,0.00619704,0.02414453,-0.00302932,-0.0622070
 8,-0.03450222,0.00454801,-0.00011388,-0.03013602,0.00379996,-0.0048967
 8,-0.00049119,0.00020301,0.00064116,-0.00125362,0.00015151,-0.00004232
 ,-0.00003127,0.00000640,0.00002895,0.00005992,-0.00000798,-0.00000174,
 0.00000220,-0.00000023,-0.00000843,0.00000949,-0.00000105,0.00000487,-
 0.00001156,0.00000154,-0.00000190,0.00000019,0.,-0.00000393,0.00000220
 ,-0.00000021,0.00000087,-0.00000221,0.00000029,-0.00004089,-0.00002499
 ,0.00000303,0.00000751,-0.00001093,0.00000266,-0.00000547,-0.00006073,
 0.00000797,-0.00030479,0.00021236,-0.00002208,-0.00002011,-0.00005285,
 0.00000719,0.00001961,-0.00001346,0.00000284,-0.00043674,-0.00072041,0
 .00009593,0.06301808,-0.00000889,0.00000576,-0.00000071,0.00000094,0.0
 0000024,-0.00000097,-0.00002339,0.00000790,-0.00000121,0.00001747,-0.0
 0003096,0.00000164,-0.00001007,-0.00000846,0.00000117,0.00000824,0.000
 01117,-0.00000178,-0.00002254,-0.00001290,0.00000164,0.00001099,0.0000
 3112,-0.00000408,-0.00001292,-0.00000153,0.00000796,0.00002451,-0.0000
 4871,0.00000391,-0.00022598,0.00002496,-0.00007121,-0.00001425,0.00001
 226,0.00001459,-0.00001824,0.00000825,-0.00011277,0.00032199,0.0005894
 3,-0.00013775,0.00346845,0.00018574,0.00046922,-0.00077136,-0.00079082
 ,0.00011692,0.00004360,0.00027029,-0.00004840,0.00035877,0.00007576,-0
 .00002207,-0.00226050,0.00068736,-0.00039552,-0.00473137,-0.01501506,0
 .00238744,-0.03482385,-0.32535846,0.03615457,0.00087645,-0.00771826,0.
 00153886,-0.00194999,0.00167315,0.00089903,0.00027379,-0.00046530,0.00
 008141,-0.00000605,-0.00001196,0.00002632,0.00000570,-0.00000492,-0.00
 000207,-0.00000394,0.00000273,-0.00000003,-0.00000357,0.00000768,-0.00
 000046,0.00000727,-0.00000840,0.00000283,-0.00000319,-0.00000147,0.000
 00036,-0.00000537,0.00000172,0.00000010,-0.00000072,-0.00000532,0.0000
 0091,-0.00001855,-0.00001547,-0.00000397,-0.00001185,-0.00001825,0.000
 01892,0.00001792,0.00000433,0.00000356,0.00024741,-0.00015351,0.000030
 45,0.00004007,0.00004088,-0.00000068,0.00005400,-0.00001666,0.00001794
 ,0.00092057,0.00057118,-0.00005977,0.03845279,0.34460716,0.00000118,-0
 .00000096,-0.00000055,-0.00000016,-0.00000097,-0.00000739,0.00000329,-
 0.00000139,-0.00000367,-0.00000243,0.00000198,-0.00001656,0.00000133,0
 .00000091,-0.00000002,-0.00000119,-0.00000175,-0.00000219,0.00000291,0
 .00000167,-0.00000183,-0.00000133,-0.00000428,-0.00000024,0.00000178,0
 .00000821,0.00006031,-0.00000309,0.00000555,-0.00001588,0.00002593,-0.
 00007275,-0.00055750,0.00000418,0.00001407,0.00012653,-0.00000888,-0.0
 0011365,-0.00088541,-0.00003708,-0.00013533,-0.00047354,-0.00034603,0.
 00048800,0.00418996,0.00009160,0.00009670,0.00007136,-0.00000817,-0.00
 004944,-0.00010886,-0.00004685,-0.00001419,-0.00006936,0.00024083,-0.0
 0043680,-0.00262874,0.00056350,0.00208689,0.00351169,0.00458803,0.0361
 5123,-0.04223943,-0.00005871,0.00186165,0.00449204,0.00038451,0.000883
 84,0.00862163,-0.00003853,0.00009731,0.00020019,0.00000326,0.00002658,
 0.00019572,-0.00000123,-0.00000263,-0.00002070,0.00000053,-0.00000009,
 0.00000217,0.00000057,-0.00000060,0.00000374,-0.00000080,0.00000303,0.
 00001458,0.00000043,0.00000032,0.00000108,0.00000073,0.00000002,0.0000
 0206,0.00000010,0.00000093,0.00000183,0.00000222,-0.00000390,-0.000048
 45,0.00000278,0.00001891,0.00013046,-0.00000181,0.00000438,0.00003394,
 -0.00002645,0.00003081,0.00010834,-0.00000437,0.00000029,0.00003879,-0
 .00000555,0.00001864,0.00012976,-0.00010825,-0.00004269,0.00017428,-0.
 00517577,-0.04011477,0.03046249,0.00000941,-0.00002578,0.00000304,0.00
 005582,0.00003997,-0.00000571,0.00000457,-0.00007106,0.00000877,0.0000
 3211,-0.00002779,0.00000304,-0.00000135,-0.00000703,0.00000085,-0.0000
 1172,-0.00000065,0.00000018,0.00001657,0.00002403,-0.00000313,0.000007
 21,-0.00004473,0.00000575,-0.00009693,0.00001502,-0.00000075,0.0000111
 9,0.00006940,-0.00000856,0.00013577,0.00005917,-0.00000899,0.00003414,
 -0.00000041,-0.00000160,0.00029387,-0.00015383,0.00001872,0.00053015,-
 0.00150850,0.00022701,0.00002572,-0.00052691,0.00006131,0.00020003,0.0
 0005021,-0.00001591,-0.00004138,-0.00019154,0.00002545,-0.00044098,-0.
 00013840,0.00001447,-0.00034791,0.00121122,-0.00014587,-0.00328989,-0.
 00391806,0.00061717,-0.01998272,0.02072043,-0.00231366,-0.22626953,0.1
 3731014,-0.01512838,0.00730990,-0.00232830,0.00024762,-0.00145022,0.00
 091712,-0.00012355,-0.00265844,-0.00269713,0.00036352,0.00001891,-0.00
 019057,0.00002105,0.00000930,-0.00000003,-0.00000006,0.00000266,-0.000
 01076,0.00000147,0.00001885,0.00006575,-0.00000843,0.00000453,0.000001
 73,-0.00000026,0.00000557,-0.00000005,-0.00000003,-0.00000685,0.000001
 97,-0.00000015,0.00001859,0.00002099,-0.00000267,-0.00000137,0.0000152
 6,-0.00000161,0.00000365,-0.00008463,0.00000986,-0.00002046,0.00003417
 ,-0.00000367,-0.00001429,0.00001411,-0.00000076,-0.00010866,0.00008213
 ,-0.00000923,-0.00000012,-0.00006501,0.00001025,0.00121141,-0.00021520
 ,-0.00004403,0.24791156,0.00001167,-0.00002398,0.00000201,0.00004573,0
 .00005239,-0.00000891,-0.00005674,-0.00008499,0.00001083,-0.00005077,-
 0.00000468,0.00000012,0.00001770,-0.00006822,0.00000779,0.00000349,0.0
 0001537,-0.00000223,-0.00003650,-0.00000846,0.00000185,-0.00002198,0.0
 0010994,-0.00001031,0.00015384,0.00006851,-0.00000884,0.00007135,0.000
 20972,-0.00002450,-0.00002139,-0.00019446,0.00002188,0.00004912,0.0000
 2874,-0.00001952,0.00151478,-0.00028836,0.00005164,-0.00300825,-0.0045
 1833,0.00112946,-0.00078187,-0.00016037,-0.00001950,0.00017590,0.00006
 497,-0.00010052,-0.00005550,-0.00012081,0.00002985,-0.00015254,0.00006
 953,-0.00009477,-0.00009097,0.00040687,-0.00003518,-0.00252006,-0.0001
 8279,0.00118979,-0.01126680,0.01059075,-0.00052558,0.13800670,-0.16890
 190,0.01480994,0.02491530,-0.01330707,0.00180295,0.00131388,0.00083329
 ,-0.00041059,0.00040060,-0.00136669,0.00016906,-0.00048326,0.00077430,
 -0.00012076,0.00001144,-0.00000014,0.00000030,0.00000769,-0.00001094,0
 .00000319,-0.00004097,0.00010713,-0.00001352,0.00001086,0.00000057,-0.
 00000015,0.00001005,0.00000375,-0.00000027,0.00002962,0.00001857,-0.00
 000234,-0.00000344,0.00001266,0.00000007,-0.00006754,0.00000414,0.0000
 0342,-0.00008838,-0.00045267,0.00004964,-0.00003405,0.00001495,0.00000
 285,0.00001676,0.00000444,0.00000945,-0.00004335,0.00003019,-0.0000049
 5,0.00000675,-0.00001177,0.00002717,0.00014763,0.00088514,-0.00080743,
 -0.14604195,0.17417646,-0.00000162,0.00000240,-0.00000712,-0.00000643,
 -0.00000885,-0.00001424,0.00000698,0.00001097,-0.00000417,0.00000590,-
 0.00000012,-0.00000805,-0.00000223,0.00000805,-0.00000511,-0.00000034,
 -0.00000218,-0.00000197,0.00000440,0.00000122,0.00000317,0.00000292,-0
 .00001007,0.00002650,-0.00001802,-0.00000740,0.00001143,-0.00000880,-0
 .00002448,0.00002189,0.00000104,0.00002104,-0.00002305,-0.00000776,-0.
 00001900,-0.00012159,-0.00018889,0.00006901,0.00024681,0.00041361,0.00
 111385,0.00416475,0.00009303,-0.00002215,-0.00038068,-0.00003155,-0.00
 009922,-0.00071556,0.00000853,0.00003126,0.00011044,0.00001623,-0.0000
 9492,-0.00069328,0.00001615,-0.00004873,0.00012241,0.00044323,0.001204
 34,0.00901437,0.00166629,-0.00085852,0.00551356,-0.01521505,0.01481719
 ,-0.04001350,-0.00314211,0.00208651,0.00304074,-0.00017291,-0.00040646
 ,-0.00230436,-0.00002191,0.00020130,0.00000077,0.00005747,-0.00012381,
 -0.00022191,-0.00000149,0.00000042,0.00000318,-0.00000083,0.00000338,0
 .00001494,0.00000485,-0.00001463,-0.00000316,-0.00000140,-0.00000006,0
 .00000028,-0.00000128,-0.00000017,0.00000243,-0.00000359,-0.00000206,0
 .00000251,0.00000037,-0.00000019,0.00001293,0.00000869,0.00000256,0.00
 002556,0.00001032,0.00004960,-0.00006737,0.00000481,0.00000214,0.00003
 466,-0.00000108,0.00000948,0.00008065,0.00000639,-0.00000625,-0.000012
 48,0.00000132,0.00002792,0.00020367,-0.00008918,-0.00080365,-0.0054909
 6,0.01584018,-0.01716826,0.02594785,0.00010442,0.00000323,-0.00000150,
 0.00026270,0.00056561,-0.00007752,-0.00281873,-0.00054976,0.00009787,0
 .00108445,0.00037482,-0.00009780,0.00002388,-0.00005383,0.00000564,0.0
 0020526,0.00004093,-0.00000541,0.00008143,-0.00010119,0.00000896,0.000
 43036,-0.00131472,0.00016130,-0.00508135,-0.00067304,0.00020487,-0.000
 82195,0.00016960,-0.00001675,-0.00418260,0.00192713,-0.00013199,0.0006
 1411,0.00107705,-0.00013875,0.00008726,0.00006725,-0.00001239,0.000087
 57,-0.00002210,0.00000081,0.00013222,-0.00009532,0.00001287,-0.0000082
 8,0.00006543,-0.00000814,0.00005490,-0.00002257,0.00000213,0.00000387,
 -0.00002793,0.00000336,0.00001479,-0.00008527,0.00001126,0.00006549,0.
 00008613,-0.00001113,0.00014353,-0.00053561,0.00006166,-0.00349028,0.0
 0100290,-0.00008898,0.00073282,-0.00089042,0.00006629,0.00804861,0.025
 27288,-0.00317738,-0.06018870,-0.03049662,0.00401753,0.00159068,-0.029
 63690,0.00372424,0.00007827,0.00003404,-0.00000413,0.00000096,-0.00000
 699,0.00000092,-0.00168086,0.00247173,-0.00027467,0.00003256,0.0000080
 8,-0.00000125,-0.00001781,0.00005616,-0.00000640,-0.00038513,-0.000176
 29,0.00002622,0.00003610,-0.00002078,-0.00000839,-0.00029585,0.0002386
 8,-0.00002571,-0.00001772,-0.00004017,0.00000565,0.00001445,-0.0000260
 4,0.00000319,0.00000954,-0.00000470,0.00000052,0.00001593,-0.00000275,
 0.,-0.00000870,0.00000134,-0.00000004,0.00001003,-0.00000915,0.0000010
 2,-0.00312866,-0.00205453,0.00030374,0.06816047,0.00011078,-0.00005799
 ,0.00000593,0.00032329,0.00047075,-0.00011468,0.00240929,-0.00091676,0
 .00009053,0.00095397,-0.00164763,-0.00028156,-0.00018880,-0.00002645,-
 0.00000444,0.00003929,-0.00001748,0.00002346,-0.00001042,0.00000125,-0
 .00003337,0.00031452,-0.00048309,0.00008312,-0.00209454,0.00131282,0.0
 0067417,0.00017325,0.00067512,-0.00013603,0.00338731,0.00037421,0.0006
 8630,-0.00057859,-0.00067961,0.00011034,0.00000881,0.00002319,-0.00004
 020,0.00017099,-0.00003907,-0.00000920,-0.00007514,-0.00002109,0.00003
 193,0.00002770,-0.00000959,-0.00000006,-0.00002347,0.00001457,-0.00000
 285,0.00000397,-0.00000153,-0.00000069,-0.00003668,0.00007283,0.000000
 95,-0.00014304,-0.00009491,0.00001650,-0.00028280,0.00075310,-0.000132
 49,-0.00223417,-0.00080272,0.00011685,-0.00144317,-0.00136385,-0.00025
 609,-0.00229154,-0.01536208,0.00254394,-0.03046666,-0.33362801,0.03700
 555,-0.00179313,-0.00934532,0.00181835,0.00003822,0.00002423,0.0000076
 0,-0.00003515,-0.00000031,0.00000112,0.00271436,0.00007268,0.00014650,
 -0.00001404,0.00000971,0.,-0.00002480,0.00002038,0.00000248,-0.0001519
 9,-0.00005728,0.00001204,-0.00002176,-0.00015406,-0.00010736,0.0002082
 9,-0.00014903,0.00002724,0.00002860,0.00001833,0.00000303,-0.00001861,
 0.00001853,-0.00000095,0.00000100,0.00000277,0.00000005,-0.00000814,0.
 00000519,-0.00000266,0.00001132,0.00000141,0.00000015,0.00003251,-0.00
 001782,0.00000170,-0.00240453,0.00122424,0.00005852,0.03338371,0.35978
 037,-0.00001488,0.00000705,-0.00000180,-0.00004737,-0.00011720,-0.0004
 0881,-0.00027030,0.00012133,0.00000014,-0.00016986,-0.00027554,-0.0037
 9474,0.00002243,-0.00000585,-0.00007747,-0.00000521,0.00002344,0.00017
 148,-0.00000234,-0.00003242,-0.00026373,-0.00004141,0.00010008,0.00019
 924,0.00038173,0.00065937,0.00646995,-0.00001720,-0.00013599,-0.000386
 54,-0.00031367,0.00070150,0.00608945,0.00006725,0.00009311,0.00014652,
 -0.00000512,-0.00004080,-0.00029400,-0.00002321,-0.00000719,-0.0000976
 0,0.00001036,0.00003214,0.00022510,-0.00000344,-0.00000045,-0.00000764
 ,0.00000224,-0.00000286,-0.00000998,-0.00000060,-0.00000035,-0.0000066
 7,0.00000522,0.00000146,0.00007716,0.00001738,0.00001411,0.00002377,0.
 00003020,-0.00012986,-0.00031957,0.00031378,0.00008315,-0.00006412,0.0
 0013506,-0.00026184,-0.00351159,0.00025227,0.00225704,0.00460864,0.004
 01380,0.03700586,-0.04340548,0.00025983,0.00210816,0.00485397,-0.00000
 465,0.00000764,0.00008759,0.00000442,0.00000083,0.00000560,-0.00030486
 ,0.00014903,0.00146182,0.00000150,-0.00000023,0.00000856,0.00000367,0.
 00000164,0.00003800,0.00002320,0.00001229,0.00002496,-0.00000827,-0.00
 010737,-0.00100531,-0.00002193,0.00002692,0.00008420,-0.00000290,0.000
 00374,0.00004461,0.00000226,-0.00000087,0.00000941,-0.00000019,0.00000
 011,0.00000325,0.00000067,-0.00000272,-0.00001655,-0.00000128,0.000000
 26,0.00000358,-0.00000416,0.00000213,-0.00000165,0.00034729,0.00005488
 ,0.00148303,-0.00463170,-0.04234572,0.02755323\\-0.00000701,0.00002212
 ,-0.00000268,-0.00002314,0.00003146,-0.00000367,-0.00000073,-0.0000294
 5,0.00000367,0.00000340,0.00002820,-0.00000354,-0.00016477,-0.00002269
 ,0.00000454,0.00008304,0.00002787,-0.00000433,0.00009534,-0.00000584,-
 0.00000027,-0.00004885,0.00008553,-0.00001013,0.00005084,-0.00023258,0
 .00002841,0.00000924,0.00022132,-0.00002763,-0.00007101,-0.00022520,0.
 00002876,0.00007105,0.00007567,-0.00001016,-0.00004917,-0.00000413,0.0
 0000103,0.00003137,-0.00000602,0.00000042,-0.00003398,-0.00004057,0.00
 000540,0.00000410,0.00000210,-0.00000030,0.00002870,-0.00000744,0.0000
 0063,0.00000621,-0.00000161,0.00000014,-0.00001241,-0.00010333,0.00001
 299,0.00005756,0.00017618,-0.00002252,-0.00005237,-0.00006234,0.000008
 30,0.00004318,0.00002093,-0.00000305,0.00000485,0.00000417,-0.00000057
 ,0.00005374,0.00003376,-0.00000476,-0.00003740,0.00002281,-0.00000245,
 -0.00000109,0.00006663,-0.00000828,0.00000663,-0.00001367,0.00000163,0
 .00000374,-0.00000840,0.00000101,0.00000574,-0.00000445,0.00000049,-0.
 00000172,-0.00003264,0.00000408,-0.00001916,0.00000704,-0.00000068,0.0
 0001119,-0.00001487,0.00000173,-0.00000707,-0.00003731,0.00000472,-0.0
 0001884,-0.00001154,0.00000163,0.00000788,0.00000209,-0.00000034,-0.00
 001779,-0.00000210,0.00000045,-0.00000742,0.00000452,-0.00000048,-0.00
 001524,0.00000956,-0.00000103,-0.00002061,0.00002058,-0.00000235,0.000
 02139,0.00001493,-0.00000208,0.00000998,-0.00000243,0.00000020,0.00000
 061,-0.00000887,0.00000110\\\@
 The archive entry for this job was punched.


 THERE IS AN OLD, OLD RECIPE IN MAINE FOR STEWING COOT. PLACE THE
 BIRD IN A KETTLE OF WATER WITH A RED BUILDING BRICK FREE OF MORTAR AND
 BLEMISHES. PARBOIL THE COOT AND BRICK TOGETHER FOR THREE HOURS.
 POUR OFF THE WATER, REFILL THE KETTLE, AND AGAIN PARBOIL FOR THREE HOURS.
 ONCE AGAIN POUR OFF THE WATER, FOR THE LAST TIME ADD FRESH WATER,
 AND LET THE COOT AND BRICK SIMMER TOGETHER OVERNIGHT. IN THE MORNING,
 THROW AWAY THE COOT AND EAT THE BRICK.
 Job cpu time:       0 days  1 hours 21 minutes 39.1 seconds.
 Elapsed time:       0 days  0 hours 10 minutes 12.5 seconds.
 File lengths (MBytes):  RWF=    772 Int=      0 D2E=      0 Chk=     15 Scr=      1
 Normal termination of Gaussian 16 at Tue Oct  8 23:49:06 2024.
