 Entering Gaussian System, Link 0=g16
 Initial command:
 /home/software/g16/l1.exe "/home/software/g16/scr/Gau-228703.inp" -scrdir="/home/software/g16/scr/"
 Default is to use a total of   8 processors:
                                8 via shared-memory
                                1 via Linda
 Entering Link 1 = /home/software/g16/l1.exe PID=    228704.
  
 Copyright (c) 1988-2019, Gaussian, Inc.  All Rights Reserved.
  
 This is part of the Gaussian(R) 16 program.  It is based on
 the Gaussian(R) 09 system (copyright 2009, Gaussian, Inc.),
 the Gaussian(R) 03 system (copyright 2003, Gaussian, Inc.),
 the Gaussian(R) 98 system (copyright 1998, Gaussian, Inc.),
 the Gaussian(R) 94 system (copyright 1995, Gaussian, Inc.),
 the Gaussian 92(TM) system (copyright 1992, Gaussian, Inc.),
 the Gaussian 90(TM) system (copyright 1990, Gaussian, Inc.),
 the Gaussian 88(TM) system (copyright 1988, Gaussian, Inc.),
 the Gaussian 86(TM) system (copyright 1986, Carnegie Mellon
 University), and the Gaussian 82(TM) system (copyright 1983,
 Carnegie Mellon University). Gaussian is a federally registered
 trademark of Gaussian, Inc.
  
 This software contains proprietary and confidential information,
 including trade secrets, belonging to Gaussian, Inc.
  
 This software is provided under written license and may be
 used, copied, transmitted, or stored only in accord with that
 written license.
  
 The following legend is applicable only to US Government
 contracts under FAR:
  
                    RESTRICTED RIGHTS LEGEND
  
 Use, reproduction and disclosure by the US Government is
 subject to restrictions as set forth in subparagraphs (a)
 and (c) of the Commercial Computer Software - Restricted
 Rights clause in FAR 52.227-19.
  
 Gaussian, Inc.
 340 Quinnipiac St., Bldg. 40, Wallingford CT 06492
  
  
 ---------------------------------------------------------------
 Warning -- This program may not be used in any manner that
 competes with the business of Gaussian, Inc. or will provide
 assistance to any competitor of Gaussian, Inc.  The licensee
 of this program is prohibited from giving any competitor of
 Gaussian, Inc. access to this program.  By using this program,
 the user acknowledges that Gaussian, Inc. is engaged in the
 business of creating and licensing software in the field of
 computational chemistry and represents and warrants to the
 licensee that it is not a competitor of Gaussian, Inc. and that
 it will not use this program in any manner prohibited above.
 ---------------------------------------------------------------
  

 Cite this work as:
 Gaussian 16, Revision C.01,
 M. J. Frisch, G. W. Trucks, H. B. Schlegel, G. E. Scuseria, 
 M. A. Robb, J. R. Cheeseman, G. Scalmani, V. Barone, 
 G. A. Petersson, H. Nakatsuji, X. Li, M. Caricato, A. V. Marenich, 
 J. Bloino, B. G. Janesko, R. Gomperts, B. Mennucci, H. P. Hratchian, 
 J. V. Ortiz, A. F. Izmaylov, J. L. Sonnenberg, D. Williams-Young, 
 F. Ding, F. Lipparini, F. Egidi, J. Goings, B. Peng, A. Petrone, 
 T. Henderson, D. Ranasinghe, V. G. Zakrzewski, J. Gao, N. Rega, 
 G. Zheng, W. Liang, M. Hada, M. Ehara, K. Toyota, R. Fukuda, 
 J. Hasegawa, M. Ishida, T. Nakajima, Y. Honda, O. Kitao, H. Nakai, 
 T. Vreven, K. Throssell, J. A. Montgomery, Jr., J. E. Peralta, 
 F. Ogliaro, M. J. Bearpark, J. J. Heyd, E. N. Brothers, K. N. Kudin, 
 V. N. Staroverov, T. A. Keith, R. Kobayashi, J. Normand, 
 K. Raghavachari, A. P. Rendell, J. C. Burant, S. S. Iyengar, 
 J. Tomasi, M. Cossi, J. M. Millam, M. Klene, C. Adamo, R. Cammi, 
 J. W. Ochterski, R. L. Martin, K. Morokuma, O. Farkas, 
 J. B. Foresman, and D. J. Fox, Gaussian, Inc., Wallingford CT, 2019.
 
 ******************************************
 Gaussian 16:  ES64L-G16RevC.01  3-Jul-2019
                12-Mar-2024 
 ******************************************
 %nprocshared=16
 Will use up to   16 processors via shared memory.
 %mem=5760MB
 ----------------------------------------------------------------------
 #N opt freq B3LYP/def2SVPP symm=veryloose em=gd3bj scale=0.961 press=0
 .987
 ----------------------------------------------------------------------
 1/18=20,19=15,26=3,38=1,113=-987000,114=961000/1,3;
 2/9=110,12=2,17=2,18=2,40=1/2;
 3/5=43,7=202,11=2,25=1,30=1,71=1,74=-5,124=41/1,2,3;
 4//1;
 5/5=2,38=5/2;
 6/7=2,8=2,9=2,10=2,28=1/1;
 7//1,2,3,16;
 1/18=20,19=15,26=3/3(2);
 2/9=110/2;
 99//99;
 2/9=110/2;
 3/5=43,7=202,11=2,25=1,30=1,71=1,74=-5,124=41/1,2,3;
 4/5=5,16=3,69=1/1;
 5/5=2,38=5/2;
 7//1,2,3,16;
 1/18=20,19=15,26=3/3(-5);
 2/9=110/2;
 6/7=2,8=2,9=2,10=2,19=2,28=1/1;
 99/9=1/99;
 ------------------------------
 c1ccc2c(c1)ccc1c3ccccc3ccc21_1
 ------------------------------
 Symbolic Z-matrix:
 Charge =  0 Multiplicity = 1
 C                     4.66541  -0.02064   0.20686 
 C                     4.14736   1.25812   0.33368 
 C                     2.77005   1.46555   0.20915 
 C                     1.85787   0.40284  -0.01641 
 C                     2.41263  -0.89655  -0.09102 
 C                     3.80294  -1.09127  -0.01073 
 C                     1.57008  -1.99506  -0.22842 
 C                     0.18532  -1.83346  -0.2027 
 C                    -0.42644  -0.56613  -0.10815 
 C                    -1.85542  -0.39929  -0.01167 
 C                    -2.77108  -1.46192   0.20484 
 C                    -4.1479   -1.2507    0.33055 
 C                    -4.66356   0.03023   0.2113 
 C                    -3.79901   1.09826  -0.00896 
 C                    -2.40983   0.8996   -0.09293 
 C                    -1.56777   1.99767  -0.23532 
 C                    -0.1832    1.83653  -0.20993 
 C                     0.42862   0.56941  -0.11029 
 H                     5.73451  -0.19043   0.29685 
 H                     4.8066    2.09766   0.53915 
 H                     2.41555   2.48467   0.34065 
 H                     4.22368  -2.09058  -0.09472 
 H                     1.97784  -2.99882  -0.31971 
 H                    -0.41188  -2.7375   -0.28488 
 H                    -2.41874  -2.48216   0.33047 
 H                    -4.80874  -2.08932   0.53311 
 H                    -5.73209   0.20227   0.30623 
 H                    -4.21789   2.09945  -0.088 
 H                    -1.97449   3.00256  -0.32764 
 H                     0.41476   2.73925  -0.29623 
 

 GradGradGradGradGradGradGradGradGradGradGradGradGradGradGradGradGradGrad
 Berny optimization.
 Initialization pass.
                           ----------------------------
                           !    Initial Parameters    !
                           ! (Angstroms and Degrees)  !
 --------------------------                            --------------------------
 ! Name  Definition              Value          Derivative Info.                !
 --------------------------------------------------------------------------------
 ! R1    R(1,2)                  1.3855         estimate D2E/DX2                !
 ! R2    R(1,6)                  1.3919         estimate D2E/DX2                !
 ! R3    R(1,19)                 1.0862         estimate D2E/DX2                !
 ! R4    R(2,3)                  1.3984         estimate D2E/DX2                !
 ! R5    R(2,20)                 1.087          estimate D2E/DX2                !
 ! R6    R(3,4)                  1.4186         estimate D2E/DX2                !
 ! R7    R(3,21)                 1.087          estimate D2E/DX2                !
 ! R8    R(4,5)                  1.4148         estimate D2E/DX2                !
 ! R9    R(4,18)                 1.442          estimate D2E/DX2                !
 ! R10   R(5,6)                  1.4062         estimate D2E/DX2                !
 ! R11   R(5,7)                  1.3912         estimate D2E/DX2                !
 ! R12   R(6,22)                 1.0875         estimate D2E/DX2                !
 ! R13   R(7,8)                  1.3944         estimate D2E/DX2                !
 ! R14   R(7,23)                 1.0873         estimate D2E/DX2                !
 ! R15   R(8,9)                  1.4104         estimate D2E/DX2                !
 ! R16   R(8,24)                 1.0866         estimate D2E/DX2                !
 ! R17   R(9,10)                 1.4419         estimate D2E/DX2                !
 ! R18   R(9,18)                 1.4215         estimate D2E/DX2                !
 ! R19   R(10,11)                1.4193         estimate D2E/DX2                !
 ! R20   R(10,15)                1.4146         estimate D2E/DX2                !
 ! R21   R(11,12)                1.3986         estimate D2E/DX2                !
 ! R22   R(11,25)                1.0867         estimate D2E/DX2                !
 ! R23   R(12,13)                1.386          estimate D2E/DX2                !
 ! R24   R(12,26)                1.0867         estimate D2E/DX2                !
 ! R25   R(13,14)                1.3916         estimate D2E/DX2                !
 ! R26   R(13,27)                1.0864         estimate D2E/DX2                !
 ! R27   R(14,15)                1.4058         estimate D2E/DX2                !
 ! R28   R(14,28)                1.0882         estimate D2E/DX2                !
 ! R29   R(15,16)                1.3911         estimate D2E/DX2                !
 ! R30   R(16,17)                1.3941         estimate D2E/DX2                !
 ! R31   R(16,29)                1.088          estimate D2E/DX2                !
 ! R32   R(17,18)                1.4106         estimate D2E/DX2                !
 ! R33   R(17,30)                1.0862         estimate D2E/DX2                !
 ! A1    A(2,1,6)              119.5071         estimate D2E/DX2                !
 ! A2    A(2,1,19)             120.3105         estimate D2E/DX2                !
 ! A3    A(6,1,19)             120.1703         estimate D2E/DX2                !
 ! A4    A(1,2,3)              119.8027         estimate D2E/DX2                !
 ! A5    A(1,2,20)             120.2221         estimate D2E/DX2                !
 ! A6    A(3,2,20)             119.9724         estimate D2E/DX2                !
 ! A7    A(2,3,4)              122.437          estimate D2E/DX2                !
 ! A8    A(2,3,21)             116.7121         estimate D2E/DX2                !
 ! A9    A(4,3,21)             120.7899         estimate D2E/DX2                !
 ! A10   A(3,4,5)              116.3769         estimate D2E/DX2                !
 ! A11   A(3,4,18)             124.1368         estimate D2E/DX2                !
 ! A12   A(5,4,18)             119.4259         estimate D2E/DX2                !
 ! A13   A(4,5,6)              120.7869         estimate D2E/DX2                !
 ! A14   A(4,5,7)              119.5326         estimate D2E/DX2                !
 ! A15   A(6,5,7)              119.6754         estimate D2E/DX2                !
 ! A16   A(1,6,5)              121.0007         estimate D2E/DX2                !
 ! A17   A(1,6,22)             118.6291         estimate D2E/DX2                !
 ! A18   A(5,6,22)             120.3546         estimate D2E/DX2                !
 ! A19   A(5,7,8)              120.5376         estimate D2E/DX2                !
 ! A20   A(5,7,23)             120.6722         estimate D2E/DX2                !
 ! A21   A(8,7,23)             118.7497         estimate D2E/DX2                !
 ! A22   A(7,8,9)              122.4195         estimate D2E/DX2                !
 ! A23   A(7,8,24)             116.6149         estimate D2E/DX2                !
 ! A24   A(9,8,24)             120.9483         estimate D2E/DX2                !
 ! A25   A(8,9,10)             122.568          estimate D2E/DX2                !
 ! A26   A(8,9,18)             117.1801         estimate D2E/DX2                !
 ! A27   A(10,9,18)            120.2519         estimate D2E/DX2                !
 ! A28   A(9,10,11)            124.2584         estimate D2E/DX2                !
 ! A29   A(9,10,15)            119.3934         estimate D2E/DX2                !
 ! A30   A(11,10,15)           116.3189         estimate D2E/DX2                !
 ! A31   A(10,11,12)           122.3939         estimate D2E/DX2                !
 ! A32   A(10,11,25)           120.7559         estimate D2E/DX2                !
 ! A33   A(12,11,25)           116.7821         estimate D2E/DX2                !
 ! A34   A(11,12,13)           119.8751         estimate D2E/DX2                !
 ! A35   A(11,12,26)           119.923          estimate D2E/DX2                !
 ! A36   A(13,12,26)           120.1979         estimate D2E/DX2                !
 ! A37   A(12,13,14)           119.4575         estimate D2E/DX2                !
 ! A38   A(12,13,27)           120.315          estimate D2E/DX2                !
 ! A39   A(14,13,27)           120.2188         estimate D2E/DX2                !
 ! A40   A(13,14,15)           120.9904         estimate D2E/DX2                !
 ! A41   A(13,14,28)           118.586          estimate D2E/DX2                !
 ! A42   A(15,14,28)           120.4022         estimate D2E/DX2                !
 ! A43   A(10,15,14)           120.9041         estimate D2E/DX2                !
 ! A44   A(10,15,16)           119.5668         estimate D2E/DX2                !
 ! A45   A(14,15,16)           119.5202         estimate D2E/DX2                !
 ! A46   A(15,16,17)           120.5353         estimate D2E/DX2                !
 ! A47   A(15,16,29)           120.7616         estimate D2E/DX2                !
 ! A48   A(17,16,29)           118.6563         estimate D2E/DX2                !
 ! A49   A(16,17,18)           122.402          estimate D2E/DX2                !
 ! A50   A(16,17,30)           116.6926         estimate D2E/DX2                !
 ! A51   A(18,17,30)           120.8882         estimate D2E/DX2                !
 ! A52   A(4,18,9)             120.2546         estimate D2E/DX2                !
 ! A53   A(4,18,17)            122.5651         estimate D2E/DX2                !
 ! A54   A(9,18,17)            117.1802         estimate D2E/DX2                !
 ! D1    D(6,1,2,3)             -1.5829         estimate D2E/DX2                !
 ! D2    D(6,1,2,20)           177.8119         estimate D2E/DX2                !
 ! D3    D(19,1,2,3)           179.6752         estimate D2E/DX2                !
 ! D4    D(19,1,2,20)           -0.9299         estimate D2E/DX2                !
 ! D5    D(2,1,6,5)             -0.6158         estimate D2E/DX2                !
 ! D6    D(2,1,6,22)          -179.185          estimate D2E/DX2                !
 ! D7    D(19,1,6,5)           178.1278         estimate D2E/DX2                !
 ! D8    D(19,1,6,22)           -0.4413         estimate D2E/DX2                !
 ! D9    D(1,2,3,4)              1.435          estimate D2E/DX2                !
 ! D10   D(1,2,3,21)           178.6137         estimate D2E/DX2                !
 ! D11   D(20,2,3,4)          -177.9614         estimate D2E/DX2                !
 ! D12   D(20,2,3,21)           -0.7827         estimate D2E/DX2                !
 ! D13   D(2,3,4,5)              0.9012         estimate D2E/DX2                !
 ! D14   D(2,3,4,18)           178.0493         estimate D2E/DX2                !
 ! D15   D(21,3,4,5)          -176.165          estimate D2E/DX2                !
 ! D16   D(21,3,4,18)            0.9831         estimate D2E/DX2                !
 ! D17   D(3,4,5,6)             -3.0912         estimate D2E/DX2                !
 ! D18   D(3,4,5,7)            176.0878         estimate D2E/DX2                !
 ! D19   D(18,4,5,6)           179.6188         estimate D2E/DX2                !
 ! D20   D(18,4,5,7)            -1.2022         estimate D2E/DX2                !
 ! D21   D(3,4,18,9)          -169.1916         estimate D2E/DX2                !
 ! D22   D(3,4,18,17)           10.9529         estimate D2E/DX2                !
 ! D23   D(5,4,18,9)             7.8749         estimate D2E/DX2                !
 ! D24   D(5,4,18,17)         -171.9806         estimate D2E/DX2                !
 ! D25   D(4,5,6,1)              3.0452         estimate D2E/DX2                !
 ! D26   D(4,5,6,22)          -178.4103         estimate D2E/DX2                !
 ! D27   D(7,5,6,1)           -176.1326         estimate D2E/DX2                !
 ! D28   D(7,5,6,22)             2.4119         estimate D2E/DX2                !
 ! D29   D(4,5,7,8)             -4.3244         estimate D2E/DX2                !
 ! D30   D(4,5,7,23)           178.0195         estimate D2E/DX2                !
 ! D31   D(6,5,7,8)            174.8638         estimate D2E/DX2                !
 ! D32   D(6,5,7,23)            -2.7922         estimate D2E/DX2                !
 ! D33   D(5,7,8,9)              3.3312         estimate D2E/DX2                !
 ! D34   D(5,7,8,24)          -178.1717         estimate D2E/DX2                !
 ! D35   D(23,7,8,9)          -178.9683         estimate D2E/DX2                !
 ! D36   D(23,7,8,24)           -0.4711         estimate D2E/DX2                !
 ! D37   D(7,8,9,10)          -176.709          estimate D2E/DX2                !
 ! D38   D(7,8,9,18)             3.2645         estimate D2E/DX2                !
 ! D39   D(24,8,9,10)            4.8577         estimate D2E/DX2                !
 ! D40   D(24,8,9,18)         -175.1689         estimate D2E/DX2                !
 ! D41   D(8,9,10,11)           10.1216         estimate D2E/DX2                !
 ! D42   D(8,9,10,15)         -171.9247         estimate D2E/DX2                !
 ! D43   D(18,9,10,11)        -169.851          estimate D2E/DX2                !
 ! D44   D(18,9,10,15)           8.1026         estimate D2E/DX2                !
 ! D45   D(8,9,18,4)            -8.7392         estimate D2E/DX2                !
 ! D46   D(8,9,18,17)          171.1239         estimate D2E/DX2                !
 ! D47   D(10,9,18,4)          171.2349         estimate D2E/DX2                !
 ! D48   D(10,9,18,17)          -8.902          estimate D2E/DX2                !
 ! D49   D(9,10,11,12)         178.1097         estimate D2E/DX2                !
 ! D50   D(9,10,11,25)           1.2076         estimate D2E/DX2                !
 ! D51   D(15,10,11,12)          0.0988         estimate D2E/DX2                !
 ! D52   D(15,10,11,25)       -176.8033         estimate D2E/DX2                !
 ! D53   D(9,10,15,14)         179.7023         estimate D2E/DX2                !
 ! D54   D(9,10,15,16)          -1.3875         estimate D2E/DX2                !
 ! D55   D(11,10,15,14)         -2.1846         estimate D2E/DX2                !
 ! D56   D(11,10,15,16)        176.7257         estimate D2E/DX2                !
 ! D57   D(10,11,12,13)          1.5817         estimate D2E/DX2                !
 ! D58   D(10,11,12,26)       -177.692          estimate D2E/DX2                !
 ! D59   D(25,11,12,13)        178.5997         estimate D2E/DX2                !
 ! D60   D(25,11,12,26)         -0.6741         estimate D2E/DX2                !
 ! D61   D(11,12,13,14)         -1.1568         estimate D2E/DX2                !
 ! D62   D(11,12,13,27)        179.9093         estimate D2E/DX2                !
 ! D63   D(26,12,13,14)        178.115          estimate D2E/DX2                !
 ! D64   D(26,12,13,27)         -0.819          estimate D2E/DX2                !
 ! D65   D(12,13,14,15)         -0.9266         estimate D2E/DX2                !
 ! D66   D(12,13,14,28)       -179.2487         estimate D2E/DX2                !
 ! D67   D(27,13,14,15)        178.0084         estimate D2E/DX2                !
 ! D68   D(27,13,14,28)         -0.3137         estimate D2E/DX2                !
 ! D69   D(13,14,15,10)          2.6647         estimate D2E/DX2                !
 ! D70   D(13,14,15,16)       -176.246          estimate D2E/DX2                !
 ! D71   D(28,14,15,10)       -179.0435         estimate D2E/DX2                !
 ! D72   D(28,14,15,16)          2.0458         estimate D2E/DX2                !
 ! D73   D(10,15,16,17)         -4.2416         estimate D2E/DX2                !
 ! D74   D(10,15,16,29)        178.2804         estimate D2E/DX2                !
 ! D75   D(14,15,16,17)        174.6839         estimate D2E/DX2                !
 ! D76   D(14,15,16,29)         -2.7942         estimate D2E/DX2                !
 ! D77   D(15,16,17,18)          3.3113         estimate D2E/DX2                !
 ! D78   D(15,16,17,30)       -178.1829         estimate D2E/DX2                !
 ! D79   D(29,16,17,18)       -179.1583         estimate D2E/DX2                !
 ! D80   D(29,16,17,30)         -0.6525         estimate D2E/DX2                !
 ! D81   D(16,17,18,4)        -176.8176         estimate D2E/DX2                !
 ! D82   D(16,17,18,9)           3.3227         estimate D2E/DX2                !
 ! D83   D(30,17,18,4)           4.7381         estimate D2E/DX2                !
 ! D84   D(30,17,18,9)        -175.1216         estimate D2E/DX2                !
 --------------------------------------------------------------------------------
 Trust Radius=3.00D-01 FncErr=1.00D-07 GrdErr=1.00D-06 EigMax=2.50D+02 EigMin=1.00D-04
 Number of steps in this run=    180 maximum allowed number of steps=    180.
 GradGradGradGradGradGradGradGradGradGradGradGradGradGradGradGradGradGrad

                          Input orientation:                          
 ---------------------------------------------------------------------
 Center     Atomic      Atomic             Coordinates (Angstroms)
 Number     Number       Type             X           Y           Z
 ---------------------------------------------------------------------
      1          6           0        4.665410   -0.020640    0.206860
      2          6           0        4.147360    1.258120    0.333680
      3          6           0        2.770050    1.465550    0.209150
      4          6           0        1.857870    0.402840   -0.016410
      5          6           0        2.412630   -0.896550   -0.091020
      6          6           0        3.802940   -1.091270   -0.010730
      7          6           0        1.570080   -1.995060   -0.228420
      8          6           0        0.185320   -1.833460   -0.202700
      9          6           0       -0.426440   -0.566130   -0.108150
     10          6           0       -1.855420   -0.399290   -0.011670
     11          6           0       -2.771080   -1.461920    0.204840
     12          6           0       -4.147900   -1.250700    0.330550
     13          6           0       -4.663560    0.030230    0.211300
     14          6           0       -3.799010    1.098260   -0.008960
     15          6           0       -2.409830    0.899600   -0.092930
     16          6           0       -1.567770    1.997670   -0.235320
     17          6           0       -0.183200    1.836530   -0.209930
     18          6           0        0.428620    0.569410   -0.110290
     19          1           0        5.734510   -0.190430    0.296850
     20          1           0        4.806600    2.097660    0.539150
     21          1           0        2.415550    2.484670    0.340650
     22          1           0        4.223680   -2.090580   -0.094720
     23          1           0        1.977840   -2.998820   -0.319710
     24          1           0       -0.411880   -2.737500   -0.284880
     25          1           0       -2.418740   -2.482160    0.330470
     26          1           0       -4.808740   -2.089320    0.533110
     27          1           0       -5.732090    0.202270    0.306230
     28          1           0       -4.217890    2.099450   -0.088000
     29          1           0       -1.974490    3.002560   -0.327640
     30          1           0        0.414760    2.739250   -0.296230
 ---------------------------------------------------------------------
                    Distance matrix (angstroms):
                    1          2          3          4          5
     1  C    0.000000
     2  C    1.385527   0.000000
     3  C    2.408559   1.398398   0.000000
     4  C    2.848063   2.468974   1.418556   0.000000
     5  C    2.435358   2.798618   2.407772   1.414828   0.000000
     6  C    1.391923   2.399349   2.766322   2.452691   1.406174
     7  C    3.697144   4.188258   3.688796   2.424396   1.391220
     8  C    4.850285   5.054041   4.211166   2.798779   2.418922
     9  C    5.130665   4.943961   3.800783   2.483021   2.858284
    10  C    6.535469   6.236958   4.992130   3.798942   4.297652
    11  C    7.574871   7.435054   6.266915   4.995344   5.222837
    12  C    8.899594   8.666344   7.433087   6.238898   6.583593
    13  C    9.329110   8.896910   7.570912   6.536034   7.143023
    14  C    8.540780   7.955360   6.582934   5.699470   6.524605
    15  C    7.141130   6.580826   5.219455   4.297195   5.146094
    16  C    6.566706   5.790804   4.392879   3.785025   4.923506
    17  C    5.208821   4.402706   3.005818   2.501776   3.771233
    18  C    4.289421   3.807947   2.527331   1.441983   2.466922
    19  H    1.086233   2.149116   3.396761   3.934265   3.418177
    20  H    2.148848   1.087034   2.157776   3.446167   3.885035
    21  H    3.369918   2.122178   1.087000   2.184609   3.408665
    22  H    2.137926   3.376854   3.853756   3.438071   2.169245
    23  H    4.045969   4.822372   4.564854   3.417261   2.158907
    24  H    5.779447   6.093789   5.294750   3.884016   3.377060
    25  H    7.500636   7.556677   6.520941   5.170391   5.102347
    26  H    9.702855   9.563308   8.377357   7.138384   7.345776
    27  H   10.400364   9.935749   8.596027   7.599462   8.228103
    28  H    9.137546   8.418020   7.022922   6.308603   7.275976
    29  H    7.315306   6.399802   5.016094   4.641378   5.874170
    30  H    5.092948   4.064829   2.724906   2.760376   4.153629
                    6          7          8          9         10
     6  C    0.000000
     7  C    2.418654   0.000000
     8  C    3.697955   1.394395   0.000000
     9  C    4.262971   2.458129   1.410431   0.000000
    10  C    5.700515   3.785170   2.501591   1.441918   0.000000
    11  C    6.587988   4.395182   3.007396   2.529375   1.419328
    12  C    7.959758   5.793256   4.404629   3.809246   2.469307
    13  C    8.543341   6.569126   5.211178   4.290790   2.849536
    14  C    7.910985   6.200316   4.950495   3.762215   2.453611
    15  C    6.524479   4.923119   3.770473   2.466259   1.414598
    16  C    6.199719   5.078193   4.213306   2.809248   2.424496
    17  C    4.949849   4.213717   3.688453   2.417085   2.799021
    18  C    3.762154   2.809518   2.416923   1.421472   2.482931
    19  H    2.153388   4.568925   5.808839   6.185667   7.599069
    20  H    3.388064   5.273953   6.112305   5.907578   7.135872
    21  H    3.851709   4.594196   4.890338   4.193532   5.165514
    22  H    1.087519   2.658683   4.047978   4.893643   6.310532
    23  H    2.658045   1.087261   2.141234   3.426850   4.641802
    24  H    4.533204   2.117208   1.086595   2.178599   2.761463
    25  H    6.384379   4.057131   2.736094   2.798717   2.184659
    26  H    8.686363   6.424808   5.054455   4.683575   3.446025
    27  H    9.627591   7.644331   6.278451   5.376995   3.935925
    28  H    8.632519   7.091215   5.905014   4.634740   3.439592
    29  H    7.087917   6.127808   5.297875   3.896175   3.418567
    30  H    5.121929   4.873710   4.579418   3.415923   3.883957
                   11         12         13         14         15
    11  C    0.000000
    12  C    1.398589   0.000000
    13  C    2.409986   1.385968   0.000000
    14  C    2.767105   2.398876   1.391635   0.000000
    15  C    2.407477   2.797144   2.434678   1.405823   0.000000
    16  C    3.689236   4.186787   3.695160   2.416321   1.391078
    17  C    4.212948   5.053905   4.849101   3.695878   2.418555
    18  C    3.803116   4.944864   5.130734   4.261784   2.857643
    19  H    8.600594   9.939182  10.400763   9.625084   8.226200
    20  H    8.378759   9.562327   9.698746   8.680769   7.342461
    21  H    6.518830   7.551951   7.493651   6.376921   5.097522
    22  H    7.029340   8.424346   9.141910   8.633633   7.276306
    23  H    5.018910   6.403394   7.318833   7.089050   5.873734
    24  H    2.726308   4.067822   5.097382   5.124630   4.154172
    25  H    1.086654   2.122849   3.371279   3.852242   3.408174
    26  H    2.157186   1.086749   2.148751   3.387338   3.883341
    27  H    3.398145   2.149737   1.086446   2.153820   3.418042
    28  H    3.855175   3.376920   2.137726   1.088159   2.169964
    29  H    4.566144   4.821529   4.044292   2.656462   2.160336
    30  H    5.296270   6.093474   5.778037   4.531140   3.376974
                   16         17         18         19         20
    16  C    0.000000
    17  C    1.394147   0.000000
    18  C    2.457871   1.410619   0.000000
    19  H    7.641615   6.275722   5.375462   0.000000
    20  H    6.422024   5.052466   4.682310   2.480944   0.000000
    21  H    4.054103   2.734360   2.796329   4.263047   2.430288
    22  H    7.090448   5.903902   4.634465   2.458964   4.275856
    23  H    6.127266   5.297429   3.895665   4.730726   5.891828
    24  H    4.874461   4.580356   3.416515   6.678629   7.161727
    25  H    4.594904   4.892929   4.196881   8.469276   8.557093
    26  H    5.272367   6.112285   5.908701  10.715490  10.487402
    27  H    4.567089   5.807530   6.185679  11.473326  10.710310
    28  H    2.656162   4.045086   4.891991  10.219683   9.046256
    29  H    1.088002   2.140608   3.426718   8.367428   6.895894
    30  H    2.117564   1.086235   2.177836   6.102009   4.516388
                   21         22         23         24         25
    21  H    0.000000
    22  H    4.938805   0.000000
    23  H    5.540427   2.432965   0.000000
    24  H    5.971324   4.684344   2.404218   0.000000
    25  H    6.931080   6.667523   4.474325   2.114555   0.000000
    26  H    8.552707   9.054214   6.900157   4.519029   2.430532
    27  H    8.461358  10.224250   8.371487   6.107069   4.264392
    28  H    6.658428   9.424251   8.027024   6.157967   4.939960
    29  H    4.470713   8.025686   7.185926   5.949106   5.541897
    30  H    2.115086   6.154327   5.947203   5.538795   5.973659
                   26         27         28         29         30
    26  H    0.000000
    27  H    2.481015   0.000000
    28  H    4.275591   2.459169   0.000000
    29  H    5.890764   4.728951   2.430201   0.000000
    30  H    7.161553   6.677050   4.681255   2.403921   0.000000
 Stoichiometry    C18H12
 Framework group  C1[X(C18H12)]
 Deg. of freedom    84
 Full point group                 C1      NOp   1
 Largest Abelian subgroup         C1      NOp   1
 Largest concise Abelian subgroup C1      NOp   1
                         Standard orientation:                         
 ---------------------------------------------------------------------
 Center     Atomic      Atomic             Coordinates (Angstroms)
 Number     Number       Type             X           Y           Z
 ---------------------------------------------------------------------
      1          6           0       -4.664194    0.060609    0.190574
      2          6           0       -4.156418   -1.222209    0.317959
      3          6           0       -2.780817   -1.440736    0.193518
      4          6           0       -1.860143   -0.385477   -0.032515
      5          6           0       -2.404462    0.918288   -0.107699
      6          6           0       -3.793165    1.124190   -0.027492
      7          6           0       -1.553128    2.009943   -0.245587
      8          6           0       -0.169709    1.837252   -0.219799
      9          6           0        0.431866    0.565097   -0.124689
     10          6           0        1.859462    0.386842   -0.028139
     11          6           0        2.783618    1.442189    0.187899
     12          6           0        4.158700    1.219987    0.313699
     13          6           0        4.664068   -0.065091    0.195015
     14          6           0        3.790977   -1.126249   -0.024770
     15          6           0        2.403435   -0.916489   -0.108825
     16          6           0        1.552593   -2.007832   -0.250726
     17          6           0        0.169360   -1.835579   -0.225405
     18          6           0       -0.432275   -0.563548   -0.126324
     19          1           0       -5.731897    0.239009    0.280491
     20          1           0       -4.822370   -2.056343    0.523802
     21          1           0       -2.434502   -2.462608    0.325468
     22          1           0       -4.205876    2.126805   -0.111924
     23          1           0       -1.952824    3.016901   -0.337321
     24          1           0        0.434723    2.736435   -0.302381
     25          1           0        2.439474    2.465278    0.313078
     26          1           0        4.826247    2.053369    0.515886
     27          1           0        5.731184   -0.245655    0.290019
     28          1           0        4.201812   -2.130802   -0.103367
     29          1           0        1.951238   -3.015993   -0.342602
     30          1           0       -0.435822   -2.733512   -0.311304
 ---------------------------------------------------------------------
 Rotational constants (GHZ):           1.2709192           0.2618196           0.2187656
 Standard basis: def2SVPP (5D, 7F)
 There are   294 symmetry adapted cartesian basis functions of A   symmetry.
 There are   276 symmetry adapted basis functions of A   symmetry.
   276 basis functions,   498 primitive gaussians,   294 cartesian basis functions
    60 alpha electrons       60 beta electrons
       nuclear repulsion energy      1138.9556193032 Hartrees.
 NAtoms=   30 NActive=   30 NUniq=   30 SFac= 1.00D+00 NAtFMM=   60 NAOKFM=F Big=F
 Integral buffers will be    131072 words long.
 Raffenetti 2 integral format.
 Two-electron integral symmetry is turned on.
 Nuclear repulsion after empirical dispersion term =     1138.8818925368 Hartrees.
 One-electron integrals computed using PRISM.
   1 Symmetry operations used in ECPInt.
 ECPInt:  NShTT=    8778 NPrTT=   35250 LenC2=    8226 LenP2D=   23356.
 LDataN:  DoStor=T MaxTD1= 4 Len=   56
 NBasis=   276 RedAO= T EigKep=  2.25D-04  NBF=   276
 NBsUse=   276 1.00D-06 EigRej= -1.00D+00 NBFU=   276
 ExpMin= 1.22D-01 ExpMax= 1.24D+03 ExpMxC= 1.86D+02 IAcc=3 IRadAn=         5 AccDes= 0.00D+00
 Harris functional with IExCor=  402 and IRadAn=       5 diagonalized for initial guess.
 HarFok:  IExCor=  402 AccDes= 0.00D+00 IRadAn=         5 IDoV= 1 UseB2=F ITyADJ=14
 ICtDFT=  3500011 ScaDFX=  1.000000  1.000000  1.000000  1.000000
 FoFCou: FMM=F IPFlag=           0 FMFlag=      100000 FMFlg1=           0
         NFxFlg=           0 DoJE=T BraDBF=F KetDBF=T FulRan=T
         wScrn=  0.000000 ICntrl=       500 IOpCl=  0 I1Cent=   200000004 NGrid=           0
         NMat0=    1 NMatS0=      1 NMatT0=    0 NMatD0=    1 NMtDS0=    0 NMtDT0=    0
 Petite list used in FoFCou.
 Requested convergence on RMS density matrix=1.00D-08 within 128 cycles.
 Requested convergence on MAX density matrix=1.00D-06.
 Requested convergence on             energy=1.00D-06.
 No special actions if energy rises.
 Integral accuracy reduced to 1.0D-05 until final iterations.
 Initial convergence to 1.0D-05 achieved.  Increase integral accuracy.
 SCF Done:  E(RB3LYP) =  -692.725505423     A.U. after   14 cycles
            NFock= 14  Conv=0.65D-08     -V/T= 2.0105

 **********************************************************************

            Population analysis using the SCF Density.

 **********************************************************************

 Orbital symmetries:
       Occupied  (A) (A) (A) (A) (A) (A) (A) (A) (A) (A) (A) (A)
                 (A) (A) (A) (A) (A) (A) (A) (A) (A) (A) (A) (A)
                 (A) (A) (A) (A) (A) (A) (A) (A) (A) (A) (A) (A)
                 (A) (A) (A) (A) (A) (A) (A) (A) (A) (A) (A) (A)
                 (A) (A) (A) (A) (A) (A) (A) (A) (A) (A) (A) (A)
       Virtual   (A) (A) (A) (A) (A) (A) (A) (A) (A) (A) (A) (A)
                 (A) (A) (A) (A) (A) (A) (A) (A) (A) (A) (A) (A)
                 (A) (A) (A) (A) (A) (A) (A) (A) (A) (A) (A) (A)
                 (A) (A) (A) (A) (A) (A) (A) (A) (A) (A) (A) (A)
                 (A) (A) (A) (A) (A) (A) (A) (A) (A) (A) (A) (A)
                 (A) (A) (A) (A) (A) (A) (A) (A) (A) (A) (A) (A)
                 (A) (A) (A) (A) (A) (A) (A) (A) (A) (A) (A) (A)
                 (A) (A) (A) (A) (A) (A) (A) (A) (A) (A) (A) (A)
                 (A) (A) (A) (A) (A) (A) (A) (A) (A) (A) (A) (A)
                 (A) (A) (A) (A) (A) (A) (A) (A) (A) (A) (A) (A)
                 (A) (A) (A) (A) (A) (A) (A) (A) (A) (A) (A) (A)
                 (A) (A) (A) (A) (A) (A) (A) (A) (A) (A) (A) (A)
                 (A) (A) (A) (A) (A) (A) (A) (A) (A) (A) (A) (A)
                 (A) (A) (A) (A) (A) (A) (A) (A) (A) (A) (A) (A)
                 (A) (A) (A) (A) (A) (A) (A) (A) (A) (A) (A) (A)
                 (A) (A) (A) (A) (A) (A) (A) (A) (A) (A) (A) (A)
                 (A) (A) (A) (A) (A) (A) (A) (A) (A) (A) (A) (A)
                 (A) (A) (A) (A) (A) (A) (A) (A) (A) (A) (A) (A)
 The electronic state is 1-A.
 Alpha  occ. eigenvalues --  -10.20135 -10.20105 -10.20072 -10.20061 -10.19362
 Alpha  occ. eigenvalues --  -10.19358 -10.19169 -10.19158 -10.18986 -10.18974
 Alpha  occ. eigenvalues --  -10.18934 -10.18926 -10.18891 -10.18887 -10.18837
 Alpha  occ. eigenvalues --  -10.18836 -10.18805 -10.18800  -0.88661  -0.86329
 Alpha  occ. eigenvalues --   -0.82545  -0.80359  -0.76903  -0.76698  -0.73079
 Alpha  occ. eigenvalues --   -0.72313  -0.70323  -0.63517  -0.63189  -0.62596
 Alpha  occ. eigenvalues --   -0.59725  -0.58772  -0.54344  -0.53092  -0.51270
 Alpha  occ. eigenvalues --   -0.50640  -0.48787  -0.47151  -0.46384  -0.44606
 Alpha  occ. eigenvalues --   -0.43292  -0.43239  -0.42440  -0.41572  -0.41016
 Alpha  occ. eigenvalues --   -0.40375  -0.39836  -0.38599  -0.38308  -0.36105
 Alpha  occ. eigenvalues --   -0.35301  -0.34235  -0.33623  -0.32834  -0.32063
 Alpha  occ. eigenvalues --   -0.28766  -0.28139  -0.24351  -0.23267  -0.20547
 Alpha virt. eigenvalues --   -0.06175  -0.04127  -0.02802   0.01634   0.01716
 Alpha virt. eigenvalues --    0.06168   0.06684   0.06819   0.07314   0.09106
 Alpha virt. eigenvalues --    0.09567   0.09655   0.11496   0.12024   0.13383
 Alpha virt. eigenvalues --    0.14175   0.16027   0.16823   0.18794   0.20878
 Alpha virt. eigenvalues --    0.21312   0.23957   0.24190   0.24978   0.26728
 Alpha virt. eigenvalues --    0.26869   0.28029   0.28629   0.29051   0.30410
 Alpha virt. eigenvalues --    0.30566   0.31805   0.32756   0.33365   0.35083
 Alpha virt. eigenvalues --    0.35352   0.36271   0.36754   0.37582   0.38554
 Alpha virt. eigenvalues --    0.40322   0.40899   0.42366   0.43455   0.43694
 Alpha virt. eigenvalues --    0.43978   0.45176   0.45594   0.46212   0.46490
 Alpha virt. eigenvalues --    0.47328   0.47733   0.48279   0.49199   0.49633
 Alpha virt. eigenvalues --    0.49936   0.50385   0.50677   0.51433   0.53220
 Alpha virt. eigenvalues --    0.54075   0.54541   0.55212   0.55572   0.57971
 Alpha virt. eigenvalues --    0.59033   0.59271   0.60198   0.60338   0.63744
 Alpha virt. eigenvalues --    0.64310   0.64695   0.66232   0.67086   0.67177
 Alpha virt. eigenvalues --    0.68114   0.68250   0.68385   0.68860   0.69606
 Alpha virt. eigenvalues --    0.70820   0.71404   0.71682   0.72578   0.72626
 Alpha virt. eigenvalues --    0.73728   0.74090   0.75025   0.75554   0.76209
 Alpha virt. eigenvalues --    0.77877   0.78066   0.79364   0.80281   0.80359
 Alpha virt. eigenvalues --    0.81352   0.81812   0.83693   0.84358   0.86575
 Alpha virt. eigenvalues --    0.86864   0.87588   0.90899   0.93750   0.94951
 Alpha virt. eigenvalues --    0.97019   0.99447   1.06861   1.08784   1.10156
 Alpha virt. eigenvalues --    1.12169   1.13782   1.17355   1.19151   1.19921
 Alpha virt. eigenvalues --    1.22079   1.23433   1.24145   1.25563   1.25917
 Alpha virt. eigenvalues --    1.28175   1.28545   1.33225   1.33918   1.36193
 Alpha virt. eigenvalues --    1.37150   1.40139   1.42493   1.42637   1.43310
 Alpha virt. eigenvalues --    1.45619   1.46134   1.46647   1.48360   1.48670
 Alpha virt. eigenvalues --    1.49106   1.49794   1.49976   1.50938   1.52935
 Alpha virt. eigenvalues --    1.53421   1.67963   1.71252   1.71318   1.74120
 Alpha virt. eigenvalues --    1.74442   1.74830   1.76774   1.77432   1.81263
 Alpha virt. eigenvalues --    1.82737   1.83733   1.84124   1.86304   1.87076
 Alpha virt. eigenvalues --    1.88039   1.89650   1.92128   1.93997   1.94933
 Alpha virt. eigenvalues --    1.96920   2.01484   2.02474   2.05599   2.06672
 Alpha virt. eigenvalues --    2.06717   2.08605   2.10285   2.12339   2.13783
 Alpha virt. eigenvalues --    2.15402   2.15860   2.16172   2.19459   2.19812
 Alpha virt. eigenvalues --    2.20365   2.24699   2.25095   2.25578   2.26911
 Alpha virt. eigenvalues --    2.29358   2.29902   2.33960   2.35309   2.35451
 Alpha virt. eigenvalues --    2.38360   2.39373   2.41711   2.47845   2.48678
 Alpha virt. eigenvalues --    2.52774   2.55757   2.56730   2.58518   2.59650
 Alpha virt. eigenvalues --    2.62383   2.63167   2.63704   2.64201   2.65460
 Alpha virt. eigenvalues --    2.67569   2.69496   2.70439   2.71969   2.78789
 Alpha virt. eigenvalues --    2.78887   2.82713   2.84820   2.90649   2.94563
 Alpha virt. eigenvalues --    3.02017   3.04931   3.28725   3.36618   3.41962
 Alpha virt. eigenvalues --    3.52952
          Condensed to atoms (all electrons):
               1          2          3          4          5          6
     1  C    5.236514   0.162579   0.143476  -0.155850   0.151205   0.200846
     2  C    0.162579   5.207098   0.249936   0.122869  -0.169481   0.148668
     3  C    0.143476   0.249936   5.433522   0.254515   0.029278  -0.174383
     4  C   -0.155850   0.122869   0.254515   5.540194   0.063806   0.046190
     5  C    0.151205  -0.169481   0.029278   0.063806   5.469509   0.220472
     6  C    0.200846   0.148668  -0.174383   0.046190   0.220472   5.459745
     7  C    0.022040  -0.002356   0.028482   0.020412   0.182943  -0.162507
     8  C   -0.001402   0.000193  -0.003605  -0.134969   0.146015   0.019022
     9  C   -0.000011   0.000307   0.018697   0.001749  -0.163620  -0.000710
    10  C   -0.000002   0.000002  -0.000043   0.025605  -0.003300   0.000066
    11  C    0.000000  -0.000000   0.000008  -0.000045  -0.000113  -0.000002
    12  C    0.000000  -0.000000  -0.000000   0.000002   0.000007  -0.000000
    13  C   -0.000000   0.000000   0.000000  -0.000002  -0.000001   0.000000
    14  C    0.000000  -0.000000  -0.000002   0.000067   0.000002  -0.000000
    15  C   -0.000001   0.000007  -0.000113  -0.003274  -0.000307   0.000003
    16  C    0.000006  -0.000084   0.001185   0.021150   0.000061  -0.000003
    17  C    0.000006   0.000455  -0.028222  -0.143737   0.024183  -0.000349
    18  C   -0.004219   0.021793  -0.147433   0.243492   0.005317   0.026192
    19  H    0.436213  -0.084532   0.015160  -0.001183   0.015681  -0.078663
    20  H   -0.086342   0.436499  -0.075005   0.015795  -0.001675   0.015551
    21  H    0.015729  -0.080092   0.418220  -0.051731   0.019074  -0.001883
    22  H   -0.083162   0.016263  -0.002303   0.017200  -0.080218   0.440577
    23  H    0.000961  -0.000065  -0.000324   0.016566  -0.089349  -0.020130
    24  H    0.000015  -0.000002   0.000043  -0.001563   0.016769  -0.000597
    25  H   -0.000000   0.000000   0.000000   0.000033  -0.000077  -0.000000
    26  H   -0.000000  -0.000000   0.000000  -0.000000   0.000000  -0.000000
    27  H    0.000000  -0.000000  -0.000000   0.000000   0.000000  -0.000000
    28  H    0.000000  -0.000000  -0.000000  -0.000001   0.000000  -0.000000
    29  H    0.000000  -0.000001   0.000004  -0.000372   0.000009  -0.000000
    30  H   -0.000069   0.001246   0.009004  -0.037302  -0.000999   0.000036
               7          8          9         10         11         12
     1  C    0.022040  -0.001402  -0.000011  -0.000002   0.000000   0.000000
     2  C   -0.002356   0.000193   0.000307   0.000002  -0.000000  -0.000000
     3  C    0.028482  -0.003605   0.018697  -0.000043   0.000008  -0.000000
     4  C    0.020412  -0.134969   0.001749   0.025605  -0.000045   0.000002
     5  C    0.182943   0.146015  -0.163620  -0.003300  -0.000113   0.000007
     6  C   -0.162507   0.019022  -0.000710   0.000066  -0.000002  -0.000000
     7  C    5.461256   0.236429   0.129176   0.021211   0.001171  -0.000084
     8  C    0.236429   5.484838   0.197421  -0.143549  -0.028308   0.000437
     9  C    0.129176   0.197421   5.573897   0.243936  -0.147409   0.021894
    10  C    0.021211  -0.143549   0.243936   5.539307   0.254059   0.123321
    11  C    0.001171  -0.028308  -0.147409   0.254059   5.433817   0.249464
    12  C   -0.000084   0.000437   0.021894   0.123321   0.249464   5.208253
    13  C    0.000006   0.000006  -0.004253  -0.155764   0.143539   0.162119
    14  C   -0.000003  -0.000346   0.026188   0.046242  -0.174397   0.149084
    15  C    0.000072   0.024337   0.004492   0.063778   0.029295  -0.170327
    16  C   -0.000012  -0.003610  -0.141284   0.020448   0.028504  -0.002326
    17  C   -0.003578   0.028011   0.000386  -0.134638  -0.003607   0.000189
    18  C   -0.141371   0.000168   0.182490   0.001337   0.018771   0.000320
    19  H   -0.000544   0.000010  -0.000000   0.000000  -0.000000  -0.000000
    20  H    0.000029  -0.000001   0.000006  -0.000000   0.000000  -0.000000
    21  H   -0.000268  -0.000030  -0.001415   0.000034   0.000000   0.000000
    22  H   -0.022661   0.001024  -0.000069  -0.000001  -0.000000  -0.000000
    23  H    0.441992  -0.076549   0.016769  -0.000370   0.000004  -0.000001
    24  H   -0.077053   0.422850  -0.058329  -0.037465   0.009041   0.001255
    25  H    0.001373   0.011725  -0.039228  -0.051210   0.418098  -0.080539
    26  H   -0.000001   0.000000  -0.000287   0.015790  -0.074937   0.436379
    27  H   -0.000000  -0.000000   0.000054  -0.001182   0.015118  -0.084442
    28  H   -0.000000   0.000009  -0.000168   0.017106  -0.002303   0.016253
    29  H   -0.000000   0.000040  -0.001859   0.016437  -0.000322  -0.000065
    30  H   -0.000049  -0.000264   0.017508  -0.001555   0.000043  -0.000002
              13         14         15         16         17         18
     1  C   -0.000000   0.000000  -0.000001   0.000006   0.000006  -0.004219
     2  C    0.000000  -0.000000   0.000007  -0.000084   0.000455   0.021793
     3  C    0.000000  -0.000002  -0.000113   0.001185  -0.028222  -0.147433
     4  C   -0.000002   0.000067  -0.003274   0.021150  -0.143737   0.243492
     5  C   -0.000001   0.000002  -0.000307   0.000061   0.024183   0.005317
     6  C    0.000000  -0.000000   0.000003  -0.000003  -0.000349   0.026192
     7  C    0.000006  -0.000003   0.000072  -0.000012  -0.003578  -0.141371
     8  C    0.000006  -0.000346   0.024337  -0.003610   0.028011   0.000168
     9  C   -0.004253   0.026188   0.004492  -0.141284   0.000386   0.182490
    10  C   -0.155764   0.046242   0.063778   0.020448  -0.134638   0.001337
    11  C    0.143539  -0.174397   0.029295   0.028504  -0.003607   0.018771
    12  C    0.162119   0.149084  -0.170327  -0.002326   0.000189   0.000320
    13  C    5.237383   0.199873   0.151556   0.022079  -0.001410  -0.000012
    14  C    0.199873   5.460935   0.219648  -0.162226   0.019029  -0.000695
    15  C    0.151556   0.219648   5.473720   0.181653   0.145991  -0.164160
    16  C    0.022079  -0.162226   0.181653   5.462010   0.236431   0.129316
    17  C   -0.001410   0.019029   0.145991   0.236431   5.482316   0.198611
    18  C   -0.000012  -0.000695  -0.164160   0.129316   0.198611   5.574653
    19  H    0.000000  -0.000000   0.000000  -0.000000  -0.000000   0.000054
    20  H   -0.000000  -0.000000   0.000000  -0.000001  -0.000000  -0.000286
    21  H   -0.000000  -0.000000  -0.000079   0.001374   0.011582  -0.038981
    22  H    0.000000  -0.000000   0.000000  -0.000000   0.000009  -0.000175
    23  H    0.000000  -0.000000   0.000009  -0.000000   0.000040  -0.001883
    24  H   -0.000068   0.000036  -0.001018  -0.000048  -0.000263   0.017532
    25  H    0.015715  -0.001901   0.019246  -0.000274  -0.000027  -0.001433
    26  H   -0.086330   0.015579  -0.001673   0.000028  -0.000001   0.000006
    27  H    0.436239  -0.078690   0.015685  -0.000549   0.000010  -0.000000
    28  H   -0.083120   0.440741  -0.080353  -0.022616   0.001051  -0.000071
    29  H    0.000982  -0.020042  -0.089473   0.441991  -0.076288   0.016734
    30  H    0.000015  -0.000602   0.016805  -0.076984   0.422992  -0.058721
              19         20         21         22         23         24
     1  C    0.436213  -0.086342   0.015729  -0.083162   0.000961   0.000015
     2  C   -0.084532   0.436499  -0.080092   0.016263  -0.000065  -0.000002
     3  C    0.015160  -0.075005   0.418220  -0.002303  -0.000324   0.000043
     4  C   -0.001183   0.015795  -0.051731   0.017200   0.016566  -0.001563
     5  C    0.015681  -0.001675   0.019074  -0.080218  -0.089349   0.016769
     6  C   -0.078663   0.015551  -0.001883   0.440577  -0.020130  -0.000597
     7  C   -0.000544   0.000029  -0.000268  -0.022661   0.441992  -0.077053
     8  C    0.000010  -0.000001  -0.000030   0.001024  -0.076549   0.422850
     9  C   -0.000000   0.000006  -0.001415  -0.000069   0.016769  -0.058329
    10  C    0.000000  -0.000000   0.000034  -0.000001  -0.000370  -0.037465
    11  C   -0.000000   0.000000   0.000000  -0.000000   0.000004   0.009041
    12  C   -0.000000  -0.000000   0.000000  -0.000000  -0.000001   0.001255
    13  C    0.000000  -0.000000  -0.000000   0.000000   0.000000  -0.000068
    14  C   -0.000000  -0.000000  -0.000000  -0.000000  -0.000000   0.000036
    15  C    0.000000   0.000000  -0.000079   0.000000   0.000009  -0.001018
    16  C   -0.000000  -0.000001   0.001374  -0.000000  -0.000000  -0.000048
    17  C   -0.000000  -0.000000   0.011582   0.000009   0.000040  -0.000263
    18  C    0.000054  -0.000286  -0.038981  -0.000175  -0.001883   0.017532
    19  H    0.672376  -0.012330  -0.000353  -0.012572  -0.000018  -0.000000
    20  H   -0.012330   0.670902  -0.013369  -0.000338  -0.000001   0.000000
    21  H   -0.000353  -0.013369   0.677891   0.000029   0.000012  -0.000000
    22  H   -0.012572  -0.000338   0.000029   0.679260   0.006669  -0.000024
    23  H   -0.000018  -0.000001   0.000012   0.006669   0.682397  -0.013989
    24  H   -0.000000   0.000000  -0.000000  -0.000024  -0.013989   0.680601
    25  H   -0.000000   0.000000  -0.000000   0.000000   0.000039   0.000094
    26  H   -0.000000   0.000000   0.000000   0.000000  -0.000000   0.000031
    27  H   -0.000000  -0.000000  -0.000000  -0.000000  -0.000000  -0.000000
    28  H   -0.000000   0.000000   0.000000   0.000000   0.000000   0.000001
    29  H   -0.000000  -0.000000   0.000039   0.000000   0.000000   0.000000
    30  H   -0.000000   0.000031   0.000085   0.000001   0.000000   0.000011
              25         26         27         28         29         30
     1  C   -0.000000  -0.000000   0.000000   0.000000   0.000000  -0.000069
     2  C    0.000000  -0.000000  -0.000000  -0.000000  -0.000001   0.001246
     3  C    0.000000   0.000000  -0.000000  -0.000000   0.000004   0.009004
     4  C    0.000033  -0.000000   0.000000  -0.000001  -0.000372  -0.037302
     5  C   -0.000077   0.000000   0.000000   0.000000   0.000009  -0.000999
     6  C   -0.000000  -0.000000  -0.000000  -0.000000  -0.000000   0.000036
     7  C    0.001373  -0.000001  -0.000000  -0.000000  -0.000000  -0.000049
     8  C    0.011725   0.000000  -0.000000   0.000009   0.000040  -0.000264
     9  C   -0.039228  -0.000287   0.000054  -0.000168  -0.001859   0.017508
    10  C   -0.051210   0.015790  -0.001182   0.017106   0.016437  -0.001555
    11  C    0.418098  -0.074937   0.015118  -0.002303  -0.000322   0.000043
    12  C   -0.080539   0.436379  -0.084442   0.016253  -0.000065  -0.000002
    13  C    0.015715  -0.086330   0.436239  -0.083120   0.000982   0.000015
    14  C   -0.001901   0.015579  -0.078690   0.440741  -0.020042  -0.000602
    15  C    0.019246  -0.001673   0.015685  -0.080353  -0.089473   0.016805
    16  C   -0.000274   0.000028  -0.000549  -0.022616   0.441991  -0.076984
    17  C   -0.000027  -0.000001   0.000010   0.001051  -0.076288   0.422992
    18  C   -0.001433   0.000006  -0.000000  -0.000071   0.016734  -0.058721
    19  H   -0.000000  -0.000000  -0.000000  -0.000000  -0.000000  -0.000000
    20  H    0.000000   0.000000  -0.000000   0.000000  -0.000000   0.000031
    21  H   -0.000000   0.000000  -0.000000   0.000000   0.000039   0.000085
    22  H    0.000000   0.000000  -0.000000   0.000000   0.000000   0.000001
    23  H    0.000039  -0.000000  -0.000000   0.000000   0.000000   0.000000
    24  H    0.000094   0.000031  -0.000000   0.000001   0.000000   0.000011
    25  H    0.678157  -0.013375  -0.000349   0.000029   0.000011  -0.000000
    26  H   -0.013375   0.671040  -0.012326  -0.000340  -0.000001   0.000000
    27  H   -0.000349  -0.012326   0.672185  -0.012541  -0.000019  -0.000000
    28  H    0.000029  -0.000340  -0.012541   0.678861   0.006620  -0.000025
    29  H    0.000011  -0.000001  -0.000019   0.006620   0.681882  -0.013990
    30  H   -0.000000   0.000000  -0.000000  -0.000025  -0.013990   0.680841
 Mulliken charges:
               1
     1  C   -0.038534
     2  C   -0.031301
     3  C   -0.170098
     4  C    0.140383
     5  C    0.164806
     6  C   -0.138141
     7  C   -0.136105
     8  C   -0.179902
     9  C    0.123673
    10  C    0.140399
    11  C   -0.169490
    12  C   -0.031190
    13  C   -0.038552
    14  C   -0.138520
    15  C    0.164481
    16  C   -0.136221
    17  C   -0.179173
    18  C    0.122654
    19  H    0.050702
    20  H    0.050534
    21  H    0.044131
    22  H    0.040493
    23  H    0.037221
    24  H    0.042143
    25  H    0.043892
    26  H    0.050417
    27  H    0.050806
    28  H    0.040867
    29  H    0.037681
    30  H    0.041943
 Sum of Mulliken charges =  -0.00000
 Mulliken charges with hydrogens summed into heavy atoms:
               1
     1  C    0.012168
     2  C    0.019233
     3  C   -0.125967
     4  C    0.140383
     5  C    0.164806
     6  C   -0.097647
     7  C   -0.098883
     8  C   -0.137759
     9  C    0.123673
    10  C    0.140399
    11  C   -0.125598
    12  C    0.019228
    13  C    0.012254
    14  C   -0.097653
    15  C    0.164481
    16  C   -0.098540
    17  C   -0.137230
    18  C    0.122654
 Electronic spatial extent (au):  <R**2>=           4769.4438
 Charge=             -0.0000 electrons
 Dipole moment (field-independent basis, Debye):
    X=              0.0026    Y=             -0.0018    Z=              0.1961  Tot=              0.1961
 Quadrupole moment (field-independent basis, Debye-Ang):
   XX=            -90.8187   YY=            -92.1334   ZZ=           -110.5288
   XY=             -0.1637   XZ=              0.0182   YZ=             -0.0222
 Traceless Quadrupole moment (field-independent basis, Debye-Ang):
   XX=              7.0083   YY=              5.6935   ZZ=            -12.7018
   XY=             -0.1637   XZ=              0.0182   YZ=             -0.0222
 Octapole moment (field-independent basis, Debye-Ang**2):
  XXX=              0.0438  YYY=              0.0133  ZZZ=              0.2535  XYY=              0.0290
  XXY=             -0.0425  XXZ=             11.2266  XZZ=             -0.0165  YZZ=             -0.0280
  YYZ=             -0.4964  XYZ=              6.6648
 Hexadecapole moment (field-independent basis, Debye-Ang**3):
 XXXX=          -4854.2844 YYYY=          -1125.2504 ZZZZ=           -149.8620 XXXY=              2.4387
 XXXZ=              0.8770 YYYX=             -3.5578 YYYZ=             -0.1013 ZZZX=              0.0117
 ZZZY=             -0.0381 XXYY=          -1001.0801 XXZZ=           -998.0963 YYZZ=           -244.9809
 XXYZ=             -0.4688 YYXZ=             -0.0830 ZZXY=              2.0484
 N-N= 1.138881892537D+03 E-N=-3.880216759047D+03  KE= 6.855248516132D+02
   1 Symmetry operations used in ECPInt.
 ECPInt:  NShTT=    8778 NPrTT=   35250 LenC2=    8226 LenP2D=   23356.
 LDataN:  DoStor=T MaxTD1= 5 Len=  102
 Calling FoFJK, ICntrl=      2127 FMM=F ISym2X=0 I1Cent= 0 IOpClX= 0 NMat=1 NMatS=1 NMatT=0.
 ***** Axes restored to original set *****
 -------------------------------------------------------------------
 Center     Atomic                   Forces (Hartrees/Bohr)
 Number     Number              X              Y              Z
 -------------------------------------------------------------------
      1        6          -0.001749006   -0.022076046   -0.003081826
      2        6          -0.021621299    0.011887944   -0.001215817
      3        6           0.008085086    0.004070185    0.001243251
      4        6           0.007483314    0.011790702    0.002893102
      5        6           0.014968139    0.001495726   -0.001186305
      6        6           0.017976010    0.012265279    0.003504474
      7        6          -0.045810689   -0.013180719   -0.001053612
      8        6           0.025258510   -0.018561650   -0.000701235
      9        6           0.005696868    0.003470556    0.001212553
     10        6          -0.008187283   -0.012242108    0.001035709
     11        6          -0.007744404   -0.003124962    0.001831149
     12        6           0.021688905   -0.011791633   -0.001163408
     13        6           0.001863638    0.021511496   -0.003225459
     14        6          -0.018599644   -0.011926131    0.003808865
     15        6          -0.014786549   -0.000835109   -0.000355754
     16        6           0.045983102    0.013853159   -0.000978378
     17        6          -0.024976167    0.018037287   -0.000624641
     18        6          -0.005811146   -0.003501412    0.000576526
     19        1           0.005480357   -0.001429387   -0.000070931
     20        1           0.001731579    0.004536789    0.000384543
     21        1          -0.004229080    0.002847942   -0.000934073
     22        1          -0.001546202   -0.005415851   -0.000409838
     23        1           0.003157244   -0.003236074   -0.000451719
     24        1          -0.004976753   -0.001540398    0.000358703
     25        1           0.004176360   -0.003089840   -0.000839516
     26        1          -0.001899804   -0.004703732    0.000338433
     27        1          -0.005308864    0.001408329   -0.000074539
     28        1           0.001824255    0.005010670   -0.000587631
     29        1          -0.003143777    0.002663539   -0.000542775
     30        1           0.005017301    0.001805449    0.000310147
 -------------------------------------------------------------------
 Cartesian Forces:  Max     0.045983102 RMS     0.011124398

 GradGradGradGradGradGradGradGradGradGradGradGradGradGradGradGradGradGrad
 Berny optimization.
 FormGI is forming the generalized inverse of G from B-inverse, IUseBI=4.
 Internal  Forces:  Max     0.031697977 RMS     0.006138469
 Search for a local minimum.
 Step number   1 out of a maximum of  180
 All quantities printed in internal units (Hartrees-Bohrs-Radians)
 Mixed Optimization -- RFO/linear search
 Second derivative matrix not updated -- first step.
 ITU=  0
     Eigenvalues ---    0.01655   0.01776   0.01788   0.01805   0.01842
     Eigenvalues ---    0.01877   0.01938   0.01952   0.01968   0.01992
     Eigenvalues ---    0.01996   0.02046   0.02053   0.02072   0.02074
     Eigenvalues ---    0.02094   0.02099   0.02122   0.02131   0.02184
     Eigenvalues ---    0.02186   0.02187   0.02189   0.02199   0.02201
     Eigenvalues ---    0.02240   0.02242   0.15979   0.15981   0.15985
     Eigenvalues ---    0.15987   0.15993   0.15994   0.15995   0.15996
     Eigenvalues ---    0.15997   0.15998   0.15999   0.15999   0.21997
     Eigenvalues ---    0.21997   0.22328   0.22457   0.22692   0.22722
     Eigenvalues ---    0.24276   0.24299   0.24571   0.24680   0.24867
     Eigenvalues ---    0.24883   0.35026   0.35045   0.35101   0.35131
     Eigenvalues ---    0.35158   0.35162   0.35191   0.35202   0.35209
     Eigenvalues ---    0.35227   0.35251   0.35252   0.37133   0.37234
     Eigenvalues ---    0.37764   0.39264   0.40239   0.40348   0.40766
     Eigenvalues ---    0.42810   0.42917   0.43664   0.43672   0.45067
     Eigenvalues ---    0.45343   0.45358   0.45425   0.45947   0.45965
     Eigenvalues ---    0.46512   0.46564   0.47394   0.47442
 RFO step:  Lambda=-1.68495403D-02 EMin= 1.65512502D-02
 Linear search not attempted -- first point.
 Iteration  1 RMS(Cart)=  0.07088114 RMS(Int)=  0.00119911
 Iteration  2 RMS(Cart)=  0.00231415 RMS(Int)=  0.00019261
 Iteration  3 RMS(Cart)=  0.00000151 RMS(Int)=  0.00019260
 Iteration  4 RMS(Cart)=  0.00000000 RMS(Int)=  0.00019260
 Variable       Old X    -DE/DX   Delta X   Delta X   Delta X     New X
                                 (Linear)    (Quad)   (Total)
    R1        2.61827   0.02303   0.00000   0.04569   0.04569   2.66396
    R2        2.63035  -0.00592   0.00000  -0.01180  -0.01178   2.61857
    R3        2.05268   0.00561   0.00000   0.01519   0.01519   2.06787
    R4        2.64259  -0.00965   0.00000  -0.02124  -0.02126   2.62133
    R5        2.05420   0.00463   0.00000   0.01256   0.01256   2.06675
    R6        2.68068  -0.00261   0.00000  -0.00630  -0.00632   2.67436
    R7        2.05413   0.00394   0.00000   0.01068   0.01068   2.06481
    R8        2.67364   0.01528   0.00000   0.03623   0.03627   2.70991
    R9        2.72495   0.00300   0.00000   0.00788   0.00783   2.73279
   R10        2.65728   0.00990   0.00000   0.02236   0.02238   2.67966
   R11        2.62903   0.03149   0.00000   0.06549   0.06558   2.69460
   R12        2.05511   0.00441   0.00000   0.01199   0.01199   2.06710
   R13        2.63502  -0.01949   0.00000  -0.04093  -0.04091   2.59411
   R14        2.05463   0.00421   0.00000   0.01143   0.01143   2.06606
   R15        2.66533   0.01405   0.00000   0.02925   0.02919   2.69452
   R16        2.05337   0.00399   0.00000   0.01081   0.01081   2.06418
   R17        2.72483   0.00296   0.00000   0.00779   0.00773   2.73256
   R18        2.68619   0.00556   0.00000   0.01069   0.01056   2.69675
   R19        2.68214  -0.00311   0.00000  -0.00749  -0.00752   2.67463
   R20        2.67320   0.01536   0.00000   0.03645   0.03649   2.70970
   R21        2.64295  -0.00992   0.00000  -0.02188  -0.02191   2.62104
   R22        2.05348   0.00416   0.00000   0.01127   0.01127   2.06475
   R23        2.61910   0.02265   0.00000   0.04496   0.04496   2.66406
   R24        2.05366   0.00485   0.00000   0.01315   0.01315   2.06681
   R25        2.62981  -0.00568   0.00000  -0.01127  -0.01124   2.61857
   R26        2.05309   0.00544   0.00000   0.01473   0.01473   2.06782
   R27        2.65662   0.01022   0.00000   0.02310   0.02313   2.67975
   R28        2.05632   0.00395   0.00000   0.01076   0.01076   2.06708
   R29        2.62876   0.03170   0.00000   0.06589   0.06599   2.69474
   R30        2.63456  -0.01923   0.00000  -0.04040  -0.04036   2.59420
   R31        2.05603   0.00368   0.00000   0.01002   0.01002   2.06605
   R32        2.66568   0.01392   0.00000   0.02894   0.02889   2.69457
   R33        2.05269   0.00424   0.00000   0.01147   0.01147   2.06416
    A1        2.08579   0.00067   0.00000   0.00361   0.00359   2.08938
    A2        2.09981   0.00031   0.00000   0.00188   0.00187   2.10168
    A3        2.09737  -0.00097   0.00000  -0.00529  -0.00530   2.09207
    A4        2.09095   0.00323   0.00000   0.01177   0.01172   2.10267
    A5        2.09827  -0.00014   0.00000   0.00249   0.00251   2.10079
    A6        2.09391  -0.00310   0.00000  -0.01424  -0.01422   2.07970
    A7        2.13693  -0.00431   0.00000  -0.01945  -0.01960   2.11733
    A8        2.03701   0.00548   0.00000   0.02890   0.02887   2.06588
    A9        2.10818  -0.00113   0.00000  -0.00850  -0.00853   2.09965
   A10        2.03116   0.00779   0.00000   0.02876   0.02872   2.05988
   A11        2.16660  -0.00619   0.00000  -0.02615  -0.02613   2.14047
   A12        2.08438  -0.00157   0.00000  -0.00159  -0.00182   2.08255
   A13        2.10813  -0.00569   0.00000  -0.02033  -0.02034   2.08779
   A14        2.08624  -0.00276   0.00000  -0.00663  -0.00667   2.07957
   A15        2.08873   0.00845   0.00000   0.02696   0.02701   2.11574
   A16        2.11186  -0.00166   0.00000  -0.00302  -0.00304   2.10883
   A17        2.07047   0.00444   0.00000   0.02209   0.02205   2.09252
   A18        2.10058  -0.00278   0.00000  -0.01875  -0.01879   2.08179
   A19        2.10378   0.00150   0.00000   0.00894   0.00879   2.11257
   A20        2.10613  -0.00248   0.00000  -0.01393  -0.01400   2.09212
   A21        2.07257   0.00101   0.00000   0.00589   0.00583   2.07840
   A22        2.13662  -0.00246   0.00000  -0.01313  -0.01335   2.12327
   A23        2.03531   0.00463   0.00000   0.02580   0.02591   2.06122
   A24        2.11095  -0.00217   0.00000  -0.01269  -0.01258   2.09836
   A25        2.13922  -0.00554   0.00000  -0.01924  -0.01892   2.12030
   A26        2.04518   0.00878   0.00000   0.02963   0.02952   2.07470
   A27        2.09879  -0.00324   0.00000  -0.01038  -0.01066   2.08813
   A28        2.16872  -0.00659   0.00000  -0.02790  -0.02780   2.14092
   A29        2.08381  -0.00145   0.00000  -0.00112  -0.00133   2.08247
   A30        2.03015   0.00805   0.00000   0.02941   0.02945   2.05960
   A31        2.13618  -0.00407   0.00000  -0.01862  -0.01881   2.11737
   A32        2.10759  -0.00111   0.00000  -0.00804  -0.00808   2.09951
   A33        2.03823   0.00523   0.00000   0.02780   0.02775   2.06599
   A34        2.09222   0.00306   0.00000   0.01082   0.01076   2.10298
   A35        2.09305  -0.00299   0.00000  -0.01364  -0.01361   2.07944
   A36        2.09785  -0.00007   0.00000   0.00286   0.00289   2.10074
   A37        2.08493   0.00082   0.00000   0.00419   0.00419   2.08912
   A38        2.09989   0.00022   0.00000   0.00154   0.00152   2.10142
   A39        2.09821  -0.00104   0.00000  -0.00560  -0.00561   2.09260
   A40        2.11168  -0.00167   0.00000  -0.00289  -0.00290   2.10879
   A41        2.06972   0.00457   0.00000   0.02277   0.02272   2.09243
   A42        2.10141  -0.00289   0.00000  -0.01944  -0.01951   2.08191
   A43        2.11018  -0.00617   0.00000  -0.02203  -0.02201   2.08817
   A44        2.08683  -0.00292   0.00000  -0.00711  -0.00718   2.07965
   A45        2.08602   0.00909   0.00000   0.02921   0.02925   2.11527
   A46        2.10374   0.00151   0.00000   0.00906   0.00891   2.11265
   A47        2.10769  -0.00269   0.00000  -0.01510  -0.01519   2.09250
   A48        2.07094   0.00122   0.00000   0.00707   0.00699   2.07793
   A49        2.13632  -0.00246   0.00000  -0.01312  -0.01333   2.12299
   A50        2.03667   0.00451   0.00000   0.02512   0.02522   2.06189
   A51        2.10990  -0.00206   0.00000  -0.01201  -0.01191   2.09799
   A52        2.09884  -0.00327   0.00000  -0.01062  -0.01083   2.08801
   A53        2.13916  -0.00553   0.00000  -0.01915  -0.01883   2.12033
   A54        2.04518   0.00880   0.00000   0.02975   0.02960   2.07478
    D1       -0.02763   0.00022   0.00000   0.01021   0.01044  -0.01719
    D2        3.10340   0.00039   0.00000   0.01269   0.01282   3.11622
    D3        3.13592  -0.00014   0.00000  -0.00051  -0.00036   3.13557
    D4       -0.01623   0.00004   0.00000   0.00197   0.00202  -0.01421
    D5       -0.01075   0.00016   0.00000   0.00751   0.00775  -0.00300
    D6       -3.12737  -0.00020   0.00000  -0.00677  -0.00686  -3.13423
    D7        3.10892   0.00054   0.00000   0.01831   0.01858   3.12750
    D8       -0.00770   0.00017   0.00000   0.00403   0.00397  -0.00374
    D9        0.02505  -0.00047   0.00000  -0.01257  -0.01263   0.01242
   D10        3.11740   0.00038   0.00000   0.00935   0.00935   3.12675
   D11       -3.10601  -0.00066   0.00000  -0.01514  -0.01508  -3.12109
   D12       -0.01366   0.00019   0.00000   0.00678   0.00690  -0.00676
   D13        0.01573   0.00013   0.00000  -0.00341  -0.00371   0.01202
   D14        3.10755   0.00091   0.00000   0.02052   0.02017   3.12771
   D15       -3.07466  -0.00094   0.00000  -0.02721  -0.02713  -3.10178
   D16        0.01716  -0.00016   0.00000  -0.00328  -0.00325   0.01391
   D17       -0.05395   0.00049   0.00000   0.02200   0.02234  -0.03161
   D18        3.07331   0.00032   0.00000   0.02196   0.02252   3.09583
   D19        3.13494  -0.00010   0.00000   0.00006   0.00006   3.13500
   D20       -0.02098  -0.00027   0.00000   0.00002   0.00024  -0.02074
   D21       -2.95295  -0.00280   0.00000  -0.06366  -0.06280  -3.01575
   D22        0.19116  -0.00213   0.00000  -0.05352  -0.05312   0.13805
   D23        0.13744  -0.00175   0.00000  -0.03827  -0.03782   0.09962
   D24       -3.00163  -0.00108   0.00000  -0.02813  -0.02814  -3.02977
   D25        0.05315  -0.00096   0.00000  -0.02562  -0.02559   0.02756
   D26       -3.11385  -0.00048   0.00000  -0.01051  -0.01048  -3.12433
   D27       -3.07409  -0.00069   0.00000  -0.02530  -0.02548  -3.09958
   D28        0.04210  -0.00022   0.00000  -0.01019  -0.01038   0.03172
   D29       -0.07548   0.00086   0.00000   0.02674   0.02694  -0.04854
   D30        3.10703   0.00005   0.00000   0.00071   0.00080   3.10783
   D31        3.05195   0.00058   0.00000   0.02631   0.02672   3.07867
   D32       -0.04873  -0.00024   0.00000   0.00028   0.00058  -0.04815
   D33        0.05814  -0.00061   0.00000  -0.01949  -0.01967   0.03847
   D34       -3.10968  -0.00068   0.00000  -0.02075  -0.02099  -3.13067
   D35       -3.12359   0.00011   0.00000   0.00558   0.00581  -3.11778
   D36       -0.00822   0.00003   0.00000   0.00432   0.00449  -0.00374
   D37       -3.08415  -0.00111   0.00000  -0.02726  -0.02721  -3.11136
   D38        0.05698  -0.00035   0.00000  -0.01495  -0.01513   0.04185
   D39        0.08478  -0.00112   0.00000  -0.02651  -0.02642   0.05836
   D40       -3.05727  -0.00037   0.00000  -0.01419  -0.01435  -3.07162
   D41        0.17666  -0.00179   0.00000  -0.04468  -0.04440   0.13225
   D42       -3.00065  -0.00116   0.00000  -0.03039  -0.03044  -3.03109
   D43       -2.96446  -0.00257   0.00000  -0.05737  -0.05658  -3.02104
   D44        0.14142  -0.00194   0.00000  -0.04309  -0.04261   0.09880
   D45       -0.15253   0.00103   0.00000   0.04227   0.04257  -0.10995
   D46        2.98668   0.00037   0.00000   0.03259   0.03308   3.01975
   D47        2.98861   0.00176   0.00000   0.05428   0.05442   3.04303
   D48       -0.15537   0.00110   0.00000   0.04461   0.04493  -0.11044
   D49        3.10860   0.00089   0.00000   0.01919   0.01882   3.12742
   D50        0.02108  -0.00028   0.00000  -0.00751  -0.00747   0.01361
   D51        0.00172   0.00044   0.00000   0.00583   0.00558   0.00731
   D52       -3.08580  -0.00073   0.00000  -0.02086  -0.02071  -3.10651
   D53        3.13640  -0.00013   0.00000   0.00021   0.00033   3.13673
   D54       -0.02422  -0.00010   0.00000   0.00453   0.00475  -0.01947
   D55       -0.03813   0.00017   0.00000   0.01227   0.01253  -0.02560
   D56        3.08445   0.00020   0.00000   0.01660   0.01695   3.10139
   D57        0.02761  -0.00056   0.00000  -0.01495  -0.01496   0.01264
   D58       -3.10131  -0.00081   0.00000  -0.01940  -0.01933  -3.12064
   D59        3.11715   0.00040   0.00000   0.00977   0.00982   3.12698
   D60       -0.01176   0.00014   0.00000   0.00531   0.00545  -0.00631
   D61       -0.02019   0.00007   0.00000   0.00584   0.00605  -0.01414
   D62        3.14001  -0.00017   0.00000  -0.00212  -0.00203   3.13798
   D63        3.10869   0.00030   0.00000   0.01019   0.01036   3.11905
   D64       -0.01429   0.00006   0.00000   0.00223   0.00228  -0.01202
   D65       -0.01617   0.00034   0.00000   0.01135   0.01152  -0.00465
   D66       -3.12848  -0.00012   0.00000  -0.00574  -0.00594  -3.13442
   D67        3.10683   0.00059   0.00000   0.01938   0.01964   3.12647
   D68       -0.00548   0.00013   0.00000   0.00229   0.00217  -0.00330
   D69        0.04651  -0.00079   0.00000  -0.02183  -0.02187   0.02464
   D70       -3.07607  -0.00069   0.00000  -0.02576  -0.02597  -3.10204
   D71       -3.12490  -0.00020   0.00000  -0.00373  -0.00380  -3.12870
   D72        0.03571  -0.00010   0.00000  -0.00765  -0.00790   0.02780
   D73       -0.07403   0.00080   0.00000   0.02487   0.02506  -0.04897
   D74        3.11158  -0.00010   0.00000  -0.00323  -0.00310   3.10848
   D75        3.04881   0.00066   0.00000   0.02857   0.02898   3.07779
   D76       -0.04877  -0.00024   0.00000   0.00048   0.00081  -0.04795
   D77        0.05779  -0.00063   0.00000  -0.02009  -0.02024   0.03755
   D78       -3.10988  -0.00069   0.00000  -0.02090  -0.02113  -3.13101
   D79       -3.12690   0.00015   0.00000   0.00687   0.00714  -3.11976
   D80       -0.01139   0.00010   0.00000   0.00606   0.00625  -0.00514
   D81       -3.08605  -0.00100   0.00000  -0.02448  -0.02445  -3.11050
   D82        0.05799  -0.00033   0.00000  -0.01458  -0.01478   0.04321
   D83        0.08270  -0.00104   0.00000  -0.02418  -0.02408   0.05861
   D84       -3.05645  -0.00037   0.00000  -0.01428  -0.01442  -3.07087
         Item               Value     Threshold  Converged?
 Maximum Force            0.031698     0.000450     NO 
 RMS     Force            0.006138     0.000300     NO 
 Maximum Displacement     0.310336     0.001800     NO 
 RMS     Displacement     0.071352     0.001200     NO 
 Predicted change in Energy=-9.116087D-03
 GradGradGradGradGradGradGradGradGradGradGradGradGradGradGradGradGradGrad

                          Input orientation:                          
 ---------------------------------------------------------------------
 Center     Atomic      Atomic             Coordinates (Angstroms)
 Number     Number       Type             X           Y           Z
 ---------------------------------------------------------------------
      1          6           0        4.664599   -0.017168    0.146599
      2          6           0        4.127328    1.282924    0.238104
      3          6           0        2.756813    1.484465    0.165600
      4          6           0        1.860847    0.399556    0.013826
      5          6           0        2.409677   -0.923824   -0.048436
      6          6           0        3.815393   -1.102773    0.003616
      7          6           0        1.525699   -2.038562   -0.144342
      8          6           0        0.164017   -1.866261   -0.120690
      9          6           0       -0.425027   -0.569862   -0.046501
     10          6           0       -1.859007   -0.394340    0.015425
     11          6           0       -2.755715   -1.479272    0.163935
     12          6           0       -4.125976   -1.277221    0.236841
     13          6           0       -4.662965    0.023289    0.148824
     14          6           0       -3.813404    1.108530    0.005197
     15          6           0       -2.407819    0.928822   -0.048949
     16          6           0       -1.523970    2.043435   -0.148534
     17          6           0       -0.162193    1.871379   -0.125923
     18          6           0        0.426750    0.575116   -0.048075
     19          1           0        5.746263   -0.174539    0.198264
     20          1           0        4.786200    2.145074    0.374928
     21          1           0        2.376756    2.505016    0.254610
     22          1           0        4.228743   -2.113485   -0.060722
     23          1           0        1.932033   -3.050394   -0.224457
     24          1           0       -0.468198   -2.754557   -0.186975
     25          1           0       -2.376127   -2.500214    0.250001
     26          1           0       -4.785098   -2.139555    0.371495
     27          1           0       -5.744465    0.180689    0.203135
     28          1           0       -4.226327    2.119562   -0.056637
     29          1           0       -1.930066    3.055274   -0.229684
     30          1           0        0.470417    2.759140   -0.195344
 ---------------------------------------------------------------------
                    Distance matrix (angstroms):
                    1          2          3          4          5
     1  C    0.000000
     2  C    1.409707   0.000000
     3  C    2.427944   1.387151   0.000000
     4  C    2.837660   2.442863   1.415210   0.000000
     5  C    2.438183   2.811079   2.442574   1.434024   0.000000
     6  C    1.385689   2.417403   2.800113   2.465227   1.418016
     7  C    3.744779   4.236390   3.744786   2.466122   1.425922
     8  C    4.872969   5.074834   4.246401   2.833947   2.436472
     9  C    5.123188   4.923185   3.793330   2.483672   2.856718
    10  C    6.535817   6.220853   4.985806   3.803628   4.301871
    11  C    7.563010   7.416975   6.258731   4.986499   5.199510
    12  C    8.880883   8.641260   7.416520   6.221203   6.551414
    13  C    9.327652   8.880535   7.562303   6.536048   7.138501
    14  C    8.553580   7.946061   6.582918   5.718377   6.546760
    15  C    7.138083   6.551025   5.198865   4.301810   5.161449
    16  C    6.529286   5.715333   4.328537   3.766389   4.928308
    17  C    5.190260   4.344972   2.958933   2.505690   3.799168
    18  C    4.283465   3.778515   2.510333   1.446129   2.485723
    19  H    1.094272   2.178700   3.419089   3.931928   3.428571
    20  H    2.177662   1.093679   2.144442   3.425626   3.904514
    21  H    3.406949   2.135014   1.092653   2.181078   3.442363
    22  H    2.151161   3.411037   3.893975   3.453674   2.173579
    23  H    4.099397   4.879644   4.625727   3.458901   2.186647
    24  H    5.826678   6.131950   5.338007   3.925965   3.413640
    25  H    7.466461   7.523776   6.498605   5.139688   5.047572
    26  H    9.687718   9.547905   8.369966   7.123453   7.308839
    27  H   10.411098   9.933199   8.600754   7.610815   8.232452
    28  H    9.146338   8.400619   7.015482   6.325905   7.300604
    29  H    7.284991   6.328671   4.958884   4.634993   5.890623
    30  H    5.041426   3.967379   2.642477   2.746759   4.164917
                    6          7          8          9         10
     6  C    0.000000
     7  C    2.477960   0.000000
     8  C    3.732414   1.372744   0.000000
     9  C    4.274069   2.443765   1.425878   0.000000
    10  C    5.718464   3.766328   2.505534   1.446009   0.000000
    11  C    6.583838   4.328782   2.958987   2.510661   1.415351
    12  C    7.946708   5.715451   4.344978   3.778580   2.442878
    13  C    8.554043   6.529682   5.190644   4.283702   2.838026
    14  C    7.942821   6.199401   4.968410   3.781636   2.465439
    15  C    6.546641   4.928187   3.798944   2.485462   1.433910
    16  C    6.199239   5.095409   4.258615   2.836795   2.466147
    17  C    4.968254   4.258750   3.751852   2.456633   2.834191
    18  C    3.781651   2.836947   2.456547   1.427060   2.483658
    19  H    2.151224   4.626566   5.841672   6.188781   7.610642
    20  H    3.410110   5.329475   6.140116   5.891125   7.122965
    21  H    3.892148   4.639780   4.913769   4.170794   5.138595
    22  H    1.093863   2.705374   4.072679   4.903116   6.326291
    23  H    2.718876   1.093311   2.130451   3.426433   4.635100
    24  H    4.594983   2.118984   1.092318   2.189632   2.746987
    25  H    6.352044   3.948782   2.644170   2.760609   2.181087
    26  H    8.670565   6.332650   4.981031   4.652835   3.425576
    27  H    9.647692   7.609277   6.261391   5.377924   3.932261
    28  H    8.663506   7.098133   5.930093   4.656499   3.453853
    29  H    7.096061   6.156034   5.349633   3.929416   3.459041
[...]
 046240,-0.00000003,-0.10668855,0.30956632,0.00000009,-0.00000006,-0.00
 007282,0.,-0.00000008,-0.00010641,-0.00000032,0.00000027,0.00008923,0.
 00000135,0.00000158,0.00415612,-0.00000330,0.00000662,0.00374282,-0.00
 000076,-0.00000087,-0.00261163,-0.00002390,0.00006404,-0.03775867,0.00
 000073,0.00000010,0.00476988,0.00000048,0.00000194,0.00885840,0.000000
 01,0.00000004,0.00021137,0.,0.00000006,0.00021275,0.,0.,-0.00003372,0.
 ,0.00000001,0.00007178,0.,0.,-0.00001919,-0.00000004,-0.00000019,-0.00
 061628,0.00000001,0.00000004,0.00012790,-0.00000006,-0.00000023,-0.000
 87356,0.00000017,-0.00000022,-0.00046591,0.00000001,0.00000004,0.00012
 490,0.00000002,0.,0.00003847,0.00000008,0.00000011,0.00009750,0.000000
 33,-0.00000010,0.00016988,0.00002540,-0.00007137,0.02543552,-0.0004760
 4,-0.00000641,0.,-0.00010505,0.00019172,-0.00000004,0.00024274,-0.0000
 0501,-0.00000004,-0.00031174,0.00048623,-0.00000013,-0.00470374,0.0027
 5519,-0.00000021,-0.00001880,-0.00133226,0.00000036,-0.01537994,-0.027
 90204,0.00000817,-0.15263226,-0.13359797,0.00003965,0.01167962,0.00947
 126,-0.00000282,-0.00054206,-0.00128712,0.00000027,-0.00320511,0.00210
 657,-0.00000044,-0.00010519,0.00001598,-0.00000001,-0.00002884,-0.0000
 3888,0.00000001,0.00007392,-0.00009996,0.00000003,0.00011258,-0.000020
 32,0.,0.00005869,0.00001694,-0.00000001,0.00058955,0.00040772,-0.00000
 012,-0.00101209,0.00252980,-0.00000048,-0.00008939,-0.00011480,0.00000
 003,-0.00000543,-0.00001680,0.,-0.00001704,-0.00004281,0.00000001,-0.0
 0001588,0.00006603,0.,0.00119960,0.00025759,-0.00000032,0.16852221,-0.
 00000083,0.00011650,-0.00000022,0.00006198,-0.00004882,0.00000004,-0.0
 0012996,0.00002392,-0.00000020,0.00074134,0.00018391,-0.00000018,0.001
 36224,0.00109573,0.00000212,-0.00001980,0.00008569,0.00000001,0.004314
 78,0.00628157,-0.00000039,-0.13415089,-0.24518235,0.00005978,-0.018116
 30,-0.01788746,0.00000631,-0.00181210,0.00021355,-0.00000061,-0.000786
 29,-0.00090545,0.00000029,0.00018274,0.00087377,-0.00000032,-0.0001152
 7,0.00006088,0.,-0.00013564,0.00014337,-0.00000002,0.00009789,-0.00016
 289,0.00000004,-0.00001478,0.00002822,-0.00000005,-0.00128516,-0.00060
 374,0.00000027,0.00401661,-0.00310940,0.00000179,0.00001265,0.00001251
 ,0.,-0.00001884,-0.00000529,0.00000002,0.00002562,0.00001454,0.,-0.000
 00754,0.00000005,0.00000006,-0.00012344,0.00101423,-0.00000177,0.14509
 909,0.25611075,0.,-0.00000022,-0.00071030,0.,0.00000004,0.00011863,0.,
 -0.00000020,-0.00073990,-0.00000020,-0.00000017,-0.00038176,0.00000016
 ,0.00000207,0.00927130,0.00000001,0.00000006,0.00012087,-0.00000037,0.
 00000081,0.00542977,0.00003980,0.00005975,-0.03849236,0.00000450,0.000
 00529,0.00339545,0.00000041,-0.00000063,-0.00235523,0.00000033,0.00000
 018,0.00008489,-0.00000006,-0.00000031,-0.00031203,0.00000003,-0.00000
 001,0.00000987,0.00000003,-0.00000002,0.00004563,-0.00000003,0.0000000
 4,-0.00001389,0.,-0.00000005,-0.00015841,0.00000033,0.00000021,0.00022
 956,-0.00000087,0.00000184,0.00418825,0.,0.,-0.00001572,0.,0.00000002,
 0.00008307,0.,0.,0.00003293,0.00000001,0.00000005,0.00020878,-0.000000
 22,-0.00000178,-0.00566462,-0.00004382,-0.00006686,0.02423375,0.000001
 96,0.00003052,0.,0.00004036,0.00001895,0.,0.00000943,-0.00005243,0.000
 00001,0.00008490,0.00011118,-0.00000003,0.00004653,-0.00002327,0.,-0.0
 0002055,0.00005514,-0.00000001,-0.00006031,0.00025972,-0.00000008,-0.0
 0320174,-0.00146184,0.00000051,0.00010840,0.00128515,-0.00000046,0.012
 18608,-0.01737068,0.00000429,-0.08976928,0.08935049,-0.00002176,-0.007
 42167,0.03141105,-0.00000787,-0.00534815,-0.00049754,0.00000062,-0.000
 69350,-0.00065061,0.00000018,-0.00254828,-0.00276295,0.00000103,0.0006
 6600,-0.00079266,0.00000019,0.00012876,-0.00005959,0.,0.00009544,0.000
 05684,-0.00000002,0.00001110,0.00000399,0.,0.00000748,0.00000557,0.,0.
 00000253,0.00001759,0.,-0.00000311,-0.00000321,0.,0.00001966,0.0000140
 3,0.,-0.00380615,0.00055549,0.00000004,0.09885354,-0.00001545,0.000002
 67,0.,0.00002862,0.00003516,-0.00000001,-0.00003166,-0.00002147,0.,0.0
 0011155,0.00002481,0.00000003,0.00016525,-0.00008253,0.00000002,0.0000
 1956,0.00009459,0.,0.00006720,0.00094609,-0.00000033,0.00137281,-0.000
 81869,0.00000016,0.00183913,-0.00057485,-0.00000071,0.01011359,-0.0181
 8334,0.00000543,0.08986510,-0.30735062,0.00006808,-0.00076141,-0.00135
 847,0.00000170,0.00088154,0.00166993,0.00000161,-0.00062886,0.00057960
 ,-0.00000027,-0.00421048,-0.00144675,0.00000198,0.00099016,-0.00070266
 ,0.00000021,-0.00002278,0.00005478,-0.00000009,-0.00017118,-0.00005766
 ,0.00000001,0.00000782,0.00000928,0.,-0.00000227,0.00000261,0.,0.00001
 759,0.00003058,0.,-0.00001449,0.00000105,0.,-0.00003121,-0.00001664,0.
 ,0.00094324,0.00192733,-0.00000020,-0.10039206,0.32476104,0.,0.,-0.000
 00843,0.,-0.00000001,-0.00000561,0.,0.,-0.00000840,-0.00000003,0.00000
 003,0.00016154,-0.00000005,0.00000002,0.00000400,0.,0.,0.00007059,-0.0
 0000003,-0.00000033,-0.00028041,-0.00000025,0.00000026,-0.00002875,-0.
 00000060,-0.00000069,-0.00298854,-0.00000300,0.00000645,0.00372677,-0.
 00002190,0.00006810,-0.03795715,0.00000066,0.00000051,0.00495690,0.000
 00026,0.00000166,0.00786227,0.00000017,-0.00000027,-0.00052428,0.00000
 141,0.00000193,0.00545026,-0.00000028,0.00000028,0.00023929,0.,-0.0000
 0009,-0.00027922,0.00000004,0.,-0.00004126,0.,0.,-0.00001434,0.,0.,0.0
 0000346,0.,0.,0.00000919,0.,0.,0.00000444,0.,0.,0.00001295,-0.00000006
 ,-0.00000018,0.00131147,0.00002384,-0.00007597,0.02413495,-0.00001979,
 -0.00001957,0.,-0.00002396,-0.00000075,0.,-0.00004137,0.00005134,-0.00
 000001,-0.00005205,-0.00014362,0.00000004,-0.00003166,-0.00002904,0.00
 000001,0.00002635,-0.00001257,0.,0.00004809,0.00006556,-0.00000002,-0.
 00006539,-0.00004983,0.00000002,0.00009202,-0.00142079,0.00000038,-0.0
 0468688,0.00261046,-0.00000021,-0.01467548,-0.02611000,0.00000761,-0.1
 6339406,-0.13437254,0.00004030,0.01079986,0.01112920,-0.00000322,-0.00
 013438,0.00240234,-0.00000042,-0.00041163,0.00071284,-0.00000020,0.000
 28684,0.00005081,-0.00000006,-0.00014342,0.00017697,-0.00000004,-0.000
 40738,0.00005096,-0.00000002,-0.00000717,-0.00000028,0.,-0.00001041,-0
 .00000346,0.,0.00000748,-0.00000227,0.,-0.00000532,0.00000831,0.,-0.00
 002731,0.00001112,0.,0.00003001,0.00001841,0.,0.00118156,0.00014042,-0
 .00000027,0.17057767,-0.00001305,0.00001106,0.,0.00000798,-0.00000062,
 0.,-0.00001920,-0.00000437,0.,0.00007252,0.00001991,-0.00000001,-0.000
 00723,0.00004199,0.,-0.00000624,-0.00001840,0.,-0.00003711,-0.00002738
 ,0.,0.00000138,-0.00002084,0.00000006,0.00001995,0.00021723,0.00000001
 ,0.00161159,0.00097136,0.00000186,0.00509114,0.00701832,-0.00000103,-0
 .13490097,-0.23205886,0.00005660,-0.02035457,-0.01728794,0.00000624,0.
 00369756,-0.00397656,0.00000240,0.00098506,0.00025424,-0.00000028,-0.0
 0017996,0.00001405,-0.00000022,0.00007803,-0.00007382,0.00000005,0.000
 00118,0.00012964,-0.00000018,-0.00000536,0.00000042,0.,-0.00000346,-0.
 00000382,0.,0.00000557,0.00000261,0.,-0.00000154,0.00000548,0.,-0.0000
 0618,0.00000509,0.,-0.00001344,-0.00001658,0.,-0.00027677,0.00099389,-
 0.00000158,0.14496311,0.24342202,0.,0.,-0.00000927,0.,0.,0.00000113,0.
 ,-0.00000001,-0.00004468,-0.00000002,0.,-0.00002283,0.,0.,0.00006403,0
 .,0.,0.00000133,0.,0.,-0.00003487,0.,0.00000006,0.00019271,0.,0.000000
 07,0.00026991,0.00000005,0.00000182,0.00822013,-0.00000066,0.00000013,
 0.00385690,0.00004044,0.00005658,-0.03746011,0.00000512,0.00000508,0.0
 0341388,-0.00000077,0.00000245,0.00560137,-0.00000027,-0.00000027,-0.0
 0064915,0.,-0.00000023,-0.00083387,-0.00000001,0.00000004,0.00011010,0
 .,-0.00000018,-0.00053117,0.,0.,0.00000093,0.,0.,0.00001009,0.,0.,0.00
 000346,0.,0.,0.00000228,0.,0.,-0.00001561,0.,0.,0.00001426,-0.00000016
 ,-0.00000160,-0.00500391,-0.00004381,-0.00006309,0.02574313,-0.0000099
 0,-0.00000749,0.,-0.00001071,-0.00000043,0.,-0.00001977,0.00000601,0.,
 0.00001412,0.00001074,0.,-0.00001202,0.00001196,0.,0.00000871,-0.00001
 778,0.,0.00001207,0.00002405,0.,-0.00004964,0.00002312,0.,0.00008064,0
 .00001607,-0.00000004,0.00067401,-0.00020129,0.,0.00115877,0.00231064,
 -0.00000045,-0.00727207,-0.00157739,0.00000081,-0.33174273,0.03817320,
 0.00000079,-0.01482872,0.00560692,-0.00000079,0.00019735,-0.00351995,0
 .00000124,-0.00063160,0.00069400,-0.00000015,-0.00018080,-0.00033334,0
 .00000008,0.00004387,-0.00008417,0.00000002,-0.00000921,0.00000073,0.,
 -0.00000717,-0.00000536,0.,0.00001110,0.00000782,0.,-0.00000157,0.0000
 0733,0.,-0.00001200,0.00000727,0.,0.00001352,-0.00003230,0.00000001,-0
 .00043480,-0.00008976,0.00000005,0.00075724,0.00020213,-0.00000020,0.3
 5127682,-0.00000352,-0.00001616,0.,-0.00001101,0.00002059,0.,0.0000145
 0,0.00000330,0.,-0.00005112,0.00003288,0.,-0.00000718,-0.00005239,0.00
 000001,0.00001386,0.00001470,0.,0.00004248,0.00009192,-0.00000004,-0.0
 0005624,-0.00006835,0.00000003,0.00027712,0.00015247,-0.00000028,-0.00
 055922,-0.00091582,0.00000012,0.00106593,-0.00503320,0.00000279,0.0298
 3766,0.00109387,-0.00000053,0.03855301,-0.06457517,0.00000565,-0.02582
 338,0.00805444,-0.00000010,-0.00238934,-0.00389064,0.00000334,-0.00074
 732,0.00075990,-0.00000011,-0.00033672,-0.00017706,-0.00000008,0.00010
 949,-0.00025018,0.00000009,0.00000073,0.00000124,0.,-0.00000028,0.0000
 0042,0.,0.00000399,0.00000928,0.,-0.00000172,0.00000002,0.,-0.00000079
 ,-0.00000072,0.,-0.00002047,0.00009094,0.,0.00133262,-0.00016502,0.000
 00003,-0.00071986,0.00126167,-0.00000117,-0.04108637,0.06249372,0.,0.,
 0.00000202,0.,0.,0.00001700,0.,0.,-0.00000886,0.00000002,0.,0.00005458
 ,0.,0.00000001,-0.00000556,0.,0.,0.00002203,-0.00000001,-0.00000004,-0
 .00005854,0.00000002,0.00000003,0.00003387,-0.00000011,-0.00000027,-0.
 00086081,0.00000010,0.00000011,-0.00053679,-0.00000012,0.00000275,0.00
 565444,-0.00000752,0.00000064,0.00327802,0.00000069,0.00000567,-0.0378
 5540,0.00000755,-0.00000127,0.00404705,0.00000094,0.00000338,0.0083818
 9,0.00000023,-0.00000017,0.00022296,0.00000008,-0.00000008,-0.00050842
 ,-0.00000003,0.00000010,0.00009842,0.,0.,-0.00000982,0.,0.,0.00000093,
 0.,0.,-0.00001434,0.,0.,0.00000103,0.,0.,0.00000073,0.,0.,0.00005787,-
 0.00000033,0.00000009,0.00015098,0.00000004,-0.00000120,-0.00324266,-0
 .00000119,-0.00000820,0.02581065,-0.00001797,-0.00000164,0.,-0.0000042
 0,-0.00000719,0.,-0.00002809,0.00003923,0.,0.00003669,-0.00014429,0.00
 000004,0.00000397,0.00000495,0.,0.00001050,-0.00002034,0.,-0.00000231,
 0.00012877,-0.00000003,-0.00044933,-0.00015890,0.00000006,0.00004608,0
 .00157340,-0.00000041,-0.00509649,-0.00107075,0.00000067,-0.00075527,-
 0.00065034,0.00000018,-0.00199417,-0.00280040,0.00000110,0.01112079,-0
 .01974947,0.00000499,-0.09475597,0.09314576,-0.00002257,-0.00727730,0.
 02902862,-0.00000729,0.00120517,0.00213158,-0.00000074,0.00015631,-0.0
 0038449,0.00000010,0.00013890,0.00019978,-0.00000006,-0.00000157,-0.00
 000172,0.,-0.00000532,-0.00000154,0.,-0.00000311,-0.00001449,0.,0.0000
 0230,0.00000085,0.,-0.00004963,0.00000849,0.,0.00002199,0.00000980,0.,
 0.00005891,0.00007085,-0.00000006,0.00035442,-0.00093248,0.00000024,0.
 00103568,0.00065173,-0.00000039,0.09657394,0.00002272,0.00001301,0.,0.
 00001632,-0.00001190,0.,0.00001513,-0.00003147,0.,0.00001244,0.0000260
 5,0.,0.00002534,0.00002354,0.,-0.00001640,0.00002287,0.,-0.00003832,-0
 .00004089,0.00000001,0.00012791,0.00002256,0.00000003,-0.00039046,-0.0
 0022418,0.00000014,0.00048794,0.00142272,0.00000099,-0.00045583,0.0006
 3819,-0.00000028,-0.00435534,-0.00171454,0.00000266,0.01184770,-0.0181
 6099,0.00000557,0.09331697,-0.29753083,0.00006545,-0.00003301,-0.00194
 043,0.00000150,-0.00206653,0.00053695,-0.00000099,0.00040951,0.0001592
 6,-0.00000006,-0.00012969,0.00026059,-0.00000010,0.00000733,0.00000002
 ,0.,0.00000831,0.00000548,0.,-0.00000321,0.00000105,0.,0.00000085,-0.0
 0000744,0.,0.00001750,-0.00000686,0.,-0.00001900,0.00001076,0.,0.00006
 308,-0.00008408,-0.00000027,0.00056908,-0.00091420,0.00000028,-0.00011
 651,0.00107750,-0.00000157,-0.09986820,0.31598478,0.,0.,-0.00000201,0.
 ,0.,-0.00000248,0.,0.,-0.00000607,0.,0.,0.00004122,0.,0.,-0.00000270,0
 .,0.,-0.00000062,0.00000001,0.,0.00000449,-0.00000001,0.00000004,0.000
 15048,0.00000011,0.00000006,0.00023192,0.00000025,0.00000105,0.0052280
 6,0.00000013,-0.00000028,-0.00049579,0.00000151,0.00000260,0.00769041,
 -0.00000339,0.00000675,0.00451973,-0.00002262,0.00006546,-0.03757776,0
 .00000042,0.00000042,0.00372411,0.00000037,-0.00000115,-0.00348571,-0.
 00000012,-0.00000003,-0.00002283,0.00000002,-0.00000011,-0.00014377,0.
 ,0.,0.00000103,0.,0.,0.00000228,0.,0.,0.00000444,0.,0.,0.00000031,0.,0
 .,-0.00004206,0.,0.,0.00000573,-0.00000006,-0.00000027,-0.00108920,-0.
 00000016,0.00000034,0.00022095,-0.00000019,-0.00000159,-0.00484243,0.0
 0002384,-0.00007330,0.02550957,-0.00000096,0.00004794,-0.00000001,0.00
 002376,-0.00007654,0.00000002,-0.00004041,0.00003949,0.,0.00031905,0.0
 0145567,-0.00000039,-0.00040948,-0.00001412,0.,-0.00003270,0.00012515,
 -0.00000003,-0.00010411,-0.00008055,0.00000003,0.00019557,-0.00002863,
 -0.00000003,-0.00056787,-0.00038372,0.00000011,-0.00239414,-0.00235158
 ,0.00000087,0.00052704,-0.00081737,0.00000020,0.00019797,-0.00015815,0
 .00000003,0.00012709,0.00040214,-0.00000011,0.00103194,-0.00165887,0.0
 0000030,0.00964048,-0.01750102,0.00000442,-0.09894616,0.09838674,-0.00
 002381,-0.00822214,0.03038362,-0.00000757,-0.00508756,-0.00133458,0.00
 000087,-0.00001200,-0.00000079,0.,-0.00002731,-0.00000618,0.,0.0000196
 6,-0.00003121,0.,-0.00004963,0.00001750,0.,-0.00000143,0.00001827,0.,-
 0.00001453,0.00005708,-0.00000001,-0.00017803,-0.00022002,0.00000007,-
 0.00001846,0.00003718,0.,0.00002820,0.00002620,0.,-0.00030905,0.000478
 35,-0.00000011,0.10310562,0.00003295,0.00002274,0.00000001,0.00001364,
 -0.00003203,0.,0.00000224,-0.00000774,0.00000006,-0.00005758,-0.000159
 39,0.00000010,0.00011590,0.00008690,-0.00000019,-0.00003072,-0.0000127
 4,0.,-0.00002348,0.00000237,0.00000003,0.00006317,0.00001179,-0.000000
 24,-0.00064077,0.00041357,-0.00000021,-0.00417571,-0.00147306,0.000001
 65,0.00114213,-0.00081080,0.00000020,-0.00006955,0.00022622,-0.0000000
 9,-0.00035496,0.00008751,-0.00000003,0.00236710,0.00090389,-0.00000102
 ,0.01161106,-0.01878013,0.00000554,0.09870348,-0.29309540,0.00006403,-
 0.00092361,0.00012475,0.00000127,0.00015344,0.00173974,0.00000188,0.00
 000727,-0.00000072,0.,0.00001112,0.00000509,0.,0.00001403,-0.00001664,
 0.,0.00000849,-0.00000686,0.,0.00001827,-0.00001379,0.00000004,-0.0000
 2350,0.00001392,0.,-0.00025341,-0.00028517,0.00000011,-0.00005751,0.00
 003968,0.,-0.00004249,-0.00002666,0.00000004,-0.00118005,0.00046240,-0
 .00000003,-0.10668855,0.30956632,0.,0.00000001,0.00007178,0.,0.,-0.000
 03372,0.,0.00000006,0.00021275,0.00000001,0.00000004,0.00021137,-0.000
 00004,-0.00000019,-0.00061628,0.,0.,-0.00001919,0.00000001,0.00000004,
 0.00012790,-0.00000006,-0.00000023,-0.00087356,0.00000017,-0.00000022,
 -0.00046591,0.00000135,0.00000158,0.00415612,-0.00000032,0.00000027,0.
 00008923,0.,-0.00000008,-0.00010641,0.00000009,-0.00000006,-0.00007282
 ,-0.00000076,-0.00000087,-0.00261163,-0.00000330,0.00000662,0.00374282
 ,-0.00002390,0.00006404,-0.03775867,0.00000073,0.00000010,0.00476988,0
 .00000048,0.00000194,0.00885840,0.,0.,0.00000073,0.,0.,-0.00001561,0.,
 0.,0.00001295,0.,0.,-0.00004206,0.,0.00000004,0.00012755,0.,0.,0.00003
 273,0.00000008,0.00000011,0.00009750,0.00000002,0.,0.00003847,0.000000
 01,0.00000004,0.00012490,0.00000033,-0.00000010,0.00016988,0.00002540,
 -0.00007137,0.02543552,-0.00002884,-0.00003888,0.00000001,-0.00010519,
 0.00001598,-0.00000001,-0.00320511,0.00210657,-0.00000044,-0.00054206,
 -0.00128712,0.00000027,0.00011258,-0.00002032,0.,0.00007392,-0.0000999
 6,0.00000003,0.00005869,0.00001694,-0.00000001,0.00058955,0.00040772,-
 0.00000012,-0.00101209,0.00252980,-0.00000048,-0.00031174,0.00048623,-
 0.00000013,0.00024274,-0.00000501,-0.00000004,-0.00010505,0.00019172,-
 0.00000004,-0.00047604,-0.00000641,0.,-0.00001880,-0.00133226,0.000000
 36,-0.00470374,0.00275519,-0.00000021,-0.01537994,-0.02790204,0.000008
 17,-0.15263226,-0.13359797,0.00003965,0.01167962,0.00947126,-0.0000028
 2,0.00001352,-0.00002047,0.,0.00003001,-0.00001344,0.,-0.00380615,0.00
 094324,-0.00000006,0.00002199,-0.00001900,0.,-0.00001453,-0.00002350,0
 .,-0.00007514,0.00019341,-0.00000005,-0.00001704,-0.00004281,0.0000000
 1,-0.00000543,-0.00001680,0.,-0.00008939,-0.00011480,0.00000003,-0.000
 01588,0.00006603,0.,0.00119960,0.00025759,-0.00000032,0.16852221,-0.00
 011527,0.00006088,0.,0.00018274,0.00087377,-0.00000032,-0.00078629,-0.
 00090545,0.00000029,-0.00181210,0.00021355,-0.00000061,0.00009789,-0.0
 0016289,0.00000004,-0.00013564,0.00014337,-0.00000002,-0.00001478,0.00
 002822,-0.00000005,-0.00128516,-0.00060374,0.00000027,0.00401661,-0.00
 310940,0.00000179,0.00074134,0.00018391,-0.00000018,-0.00012996,0.0000
 2392,-0.00000020,0.00006198,-0.00004882,0.00000004,-0.00000083,0.00011
 650,-0.00000022,-0.00001980,0.00008569,0.00000001,0.00136224,0.0010957
 3,0.00000212,0.00431478,0.00628157,-0.00000039,-0.13415089,-0.24518235
 ,0.00005978,-0.01811630,-0.01788746,0.00000631,-0.00003230,0.00009094,
 0.,0.00001841,-0.00001658,0.,0.00055549,0.00192733,-0.00000018,0.00000
 980,0.00001076,0.,0.00005708,0.00001392,0.,0.00019341,-0.00038019,0.00
 000009,0.00002562,0.00001454,0.,-0.00001884,-0.00000529,0.00000002,0.0
 0001265,0.00001251,0.,-0.00000754,0.00000005,0.00000006,-0.00012344,0.
 00101423,-0.00000177,0.14509909,0.25611075,0.00000003,-0.00000001,0.00
 000987,-0.00000006,-0.00000031,-0.00031203,0.00000033,0.00000018,0.000
 08489,0.00000041,-0.00000063,-0.00235523,-0.00000003,0.00000004,-0.000
 01389,0.00000003,-0.00000002,0.00004563,0.,-0.00000005,-0.00015841,0.0
 0000033,0.00000021,0.00022956,-0.00000087,0.00000184,0.00418825,-0.000
 00020,-0.00000017,-0.00038176,0.,-0.00000020,-0.00073990,0.,0.00000004
 ,0.00011863,0.,-0.00000022,-0.00071030,0.00000001,0.00000006,0.0001208
 7,0.00000016,0.00000207,0.00927130,-0.00000037,0.00000081,0.00542977,0
 .00003980,0.00005975,-0.03849236,0.00000450,0.00000529,0.00339545,0.00
 000001,0.,0.00005787,0.,0.,0.00001426,0.00000004,-0.00000020,0.0013114
 7,0.,0.,0.00000573,-0.00000001,0.,0.00003273,-0.00000005,0.00000009,-0
 .00003061,0.,0.,0.00003293,0.,0.00000002,0.00008307,0.,0.,-0.00001572,
 0.00000001,0.00000005,0.00020878,-0.00000022,-0.00000178,-0.00566462,-
 0.00004382,-0.00006686,0.02423375\\0.00002042,-0.00008998,0.00000002,-
 0.00007722,0.00006024,-0.00000001,0.00008834,0.00003452,-0.00000001,0.
 00001873,-0.00014421,0.00000004,-0.00003650,0.00024580,-0.00000006,0.0
 0003934,-0.00000957,0.,-0.00011752,-0.00007293,0.00000002,0.00009457,-
 0.00015752,0.00000004,0.00008497,0.00032209,-0.00000009,-0.00001873,0.
 00014421,-0.00000004,-0.00008834,-0.00003452,0.00000001,0.00007722,-0.
 00006024,0.00000001,-0.00002042,0.00008998,-0.00000002,-0.00003934,0.0
 0000957,0.,0.00003650,-0.00024580,0.00000006,0.00011752,0.00007293,-0.
 00000002,-0.00009457,0.00015752,-0.00000004,-0.00008497,-0.00032209,0.
 00000009,-0.00001534,0.00004006,-0.00000001,0.00002350,-0.00003612,0.,
 -0.00000164,-0.00001582,0.,-0.00002801,-0.00000292,0.,0.00006300,0.000
 03450,-0.00000001,-0.00001737,0.00003625,0.,0.00000164,0.00001582,0.,-
 0.00002350,0.00003612,0.,0.00001534,-0.00004006,0.00000001,0.00002801,
 0.00000292,0.,-0.00006300,-0.00003450,0.00000001,0.00001737,-0.0000362
 5,0.\\\@
 The archive entry for this job was punched.


 THE UNDERLYING PHYSICAL LAWS NECESSARY FOR THE 
 MATHEMATICAL THEORY OF A LARGE PART OF PHYSICS AND THE
 WHOLE OF CHEMISTRY ARE THUS COMPLETELY KNOWN, AND THE
 DIFFICULTY IS ONLY THAT THE EXACT APPLICATION OF THESE
 LAWS LEADS TO EQUATIONS MUCH TOO COMPLICATED 
 TO BE SOLUBLE.

                                        -- P. A. M. DIRAC, 1929
 Job cpu time:       0 days  0 hours 57 minutes 21.6 seconds.
 Elapsed time:       0 days  0 hours  7 minutes 13.9 seconds.
 File lengths (MBytes):  RWF=    198 Int=      0 D2E=      0 Chk=      9 Scr=      2
 Normal termination of Gaussian 16 at Tue Mar 12 15:14:33 2024.
