 Entering Gaussian System, Link 0=g16
 Initial command:
 /opt/g16/l1.exe "/tmp/Gau-1380769.inp" -scrdir="/tmp/"
 Entering Link 1 = /opt/g16/l1.exe PID=   1380771.
  
 Copyright (c) 1988-2019, Gaussian, Inc.  All Rights Reserved.
  
 This is part of the Gaussian(R) 16 program.  It is based on
 the Gaussian(R) 09 system (copyright 2009, Gaussian, Inc.),
 the Gaussian(R) 03 system (copyright 2003, Gaussian, Inc.),
 the Gaussian(R) 98 system (copyright 1998, Gaussian, Inc.),
 the Gaussian(R) 94 system (copyright 1995, Gaussian, Inc.),
 the Gaussian 92(TM) system (copyright 1992, Gaussian, Inc.),
 the Gaussian 90(TM) system (copyright 1990, Gaussian, Inc.),
 the Gaussian 88(TM) system (copyright 1988, Gaussian, Inc.),
 the Gaussian 86(TM) system (copyright 1986, Carnegie Mellon
 University), and the Gaussian 82(TM) system (copyright 1983,
 Carnegie Mellon University). Gaussian is a federally registered
 trademark of Gaussian, Inc.
  
 This software contains proprietary and confidential information,
 including trade secrets, belonging to Gaussian, Inc.
  
 This software is provided under written license and may be
 used, copied, transmitted, or stored only in accord with that
 written license.
  
 The following legend is applicable only to US Government
 contracts under FAR:
  
                    RESTRICTED RIGHTS LEGEND
  
 Use, reproduction and disclosure by the US Government is
 subject to restrictions as set forth in subparagraphs (a)
 and (c) of the Commercial Computer Software - Restricted
 Rights clause in FAR 52.227-19.
  
 Gaussian, Inc.
 340 Quinnipiac St., Bldg. 40, Wallingford CT 06492
  
  
 ---------------------------------------------------------------
 Warning -- This program may not be used in any manner that
 competes with the business of Gaussian, Inc. or will provide
 assistance to any competitor of Gaussian, Inc.  The licensee
 of this program is prohibited from giving any competitor of
 Gaussian, Inc. access to this program.  By using this program,
 the user acknowledges that Gaussian, Inc. is engaged in the
 business of creating and licensing software in the field of
 computational chemistry and represents and warrants to the
 licensee that it is not a competitor of Gaussian, Inc. and that
 it will not use this program in any manner prohibited above.
 ---------------------------------------------------------------
  

 Cite this work as:
 Gaussian 16, Revision C.01,
 M. J. Frisch, G. W. Trucks, H. B. Schlegel, G. E. Scuseria, 
 M. A. Robb, J. R. Cheeseman, G. Scalmani, V. Barone, 
 G. A. Petersson, H. Nakatsuji, X. Li, M. Caricato, A. V. Marenich, 
 J. Bloino, B. G. Janesko, R. Gomperts, B. Mennucci, H. P. Hratchian, 
 J. V. Ortiz, A. F. Izmaylov, J. L. Sonnenberg, D. Williams-Young, 
 F. Ding, F. Lipparini, F. Egidi, J. Goings, B. Peng, A. Petrone, 
 T. Henderson, D. Ranasinghe, V. G. Zakrzewski, J. Gao, N. Rega, 
 G. Zheng, W. Liang, M. Hada, M. Ehara, K. Toyota, R. Fukuda, 
 J. Hasegawa, M. Ishida, T. Nakajima, Y. Honda, O. Kitao, H. Nakai, 
 T. Vreven, K. Throssell, J. A. Montgomery, Jr., J. E. Peralta, 
 F. Ogliaro, M. J. Bearpark, J. J. Heyd, E. N. Brothers, K. N. Kudin, 
 V. N. Staroverov, T. A. Keith, R. Kobayashi, J. Normand, 
 K. Raghavachari, A. P. Rendell, J. C. Burant, S. S. Iyengar, 
 J. Tomasi, M. Cossi, J. M. Millam, M. Klene, C. Adamo, R. Cammi, 
 J. W. Ochterski, R. L. Martin, K. Morokuma, O. Farkas, 
 J. B. Foresman, and D. J. Fox, Gaussian, Inc., Wallingford CT, 2019.
 
 ******************************************
 Gaussian 16:  ES64L-G16RevC.01  3-Jul-2019
                 8-Oct-2024 
 ******************************************
 %nprocshared=8
 Will use up to    8 processors via shared memory.
 %mem=8800MB
 ----------------------------------------------------------------------
 #N opt freq B3LYP/def2SVPP symm=veryloose em=gd3bj scale=0.961 press=0
 .987
 ----------------------------------------------------------------------
 1/18=20,19=15,26=3,38=1,113=-987000,114=961000/1,3;
 2/9=110,12=2,17=2,18=2,40=1/2;
 3/5=43,7=202,11=2,25=1,30=1,71=1,74=-5,124=41/1,2,3;
 4//1;
 5/5=2,38=5/2;
 6/7=2,8=2,9=2,10=2,28=1/1;
 7//1,2,3,16;
 1/18=20,19=15,26=3/3(2);
 2/9=110/2;
 99//99;
 2/9=110/2;
 3/5=43,7=202,11=2,25=1,30=1,71=1,74=-5,124=41/1,2,3;
 4/5=5,16=3,69=1/1;
 5/5=2,38=5/2;
 7//1,2,3,16;
 1/18=20,19=15,26=3/3(-5);
 2/9=110/2;
 6/7=2,8=2,9=2,10=2,19=2,28=1/1;
 99/9=1/99;
 ------------------------------------
 c1ccc2cc3c(ccc4c5ccccc5ccc34)cc2c1_2
 ------------------------------------
 Symbolic Z-matrix:
 Charge =  0 Multiplicity = 1
 C                    -5.7151   -0.9969    0.9908 
 C                    -5.4648    0.2608    1.5296 
 C                    -4.1811    0.8045    1.4604 
 C                    -3.1302    0.0969    0.8509 
 C                    -1.8275    0.6273    0.7705 
 C                    -0.7411   -0.0593    0.162 
 C                    -1.0354   -1.3329   -0.3731 
 C                    -0.028    -2.0709   -0.9859 
 C                     1.2694   -1.57     -1.0792 
 C                     1.6339   -0.3079   -0.5676 
 C                     2.9825    0.2059   -0.6678 
 C                     4.0676   -0.4811   -1.2761 
 C                     5.3562    0.059    -1.3483 
 C                     5.6105    1.311    -0.8133 
 C                     4.576     2.0175   -0.2086 
 C                     3.2782    1.4815   -0.1321 
 C                     2.2716    2.2198    0.4807 
 C                     0.974     1.7184    0.5738 
 C                     0.6081    0.4558    0.0623 
 C                    -2.3327   -1.8711   -0.2978 
 C                    -3.3851   -1.1731    0.3075 
 C                    -4.6816   -1.7105    0.3829 
 H                    -6.7133   -1.4235    1.0427 
 H                    -6.2669    0.8201    2.0039 
 H                    -4.0052    1.7893    1.8874 
 H                    -1.6706    1.6118    1.2023 
 H                    -0.2355   -3.054    -1.404 
 H                     1.9971   -2.2079   -1.5721 
 H                     3.9302   -1.4657   -1.713 
 H                     6.1548   -0.5045   -1.8238 
 H                     6.608     1.7381   -0.8648 
 H                     4.7912    2.9999    0.2072 
 H                     2.4803    3.2027    0.8984 
 H                     0.2477    2.3575    1.0669 
 H                    -2.5282   -2.8558   -0.7197 
 H                    -4.8948   -2.6926   -0.0332 
 

 GradGradGradGradGradGradGradGradGradGradGradGradGradGradGradGradGradGrad
 Berny optimization.
 Initialization pass.
                           ----------------------------
                           !    Initial Parameters    !
                           ! (Angstroms and Degrees)  !
 --------------------------                            --------------------------
 ! Name  Definition              Value          Derivative Info.                !
 --------------------------------------------------------------------------------
 ! R1    R(1,2)                  1.391          estimate D2E/DX2                !
 ! R2    R(1,22)                 1.3953         estimate D2E/DX2                !
 ! R3    R(1,23)                 1.0868         estimate D2E/DX2                !
 ! R4    R(2,3)                  1.3958         estimate D2E/DX2                !
 ! R5    R(2,24)                 1.0868         estimate D2E/DX2                !
 ! R6    R(3,4)                  1.4059         estimate D2E/DX2                !
 ! R7    R(3,25)                 1.0877         estimate D2E/DX2                !
 ! R8    R(4,5)                  1.4088         estimate D2E/DX2                !
 ! R9    R(4,21)                 1.4047         estimate D2E/DX2                !
 ! R10   R(5,6)                  1.422          estimate D2E/DX2                !
 ! R11   R(5,26)                 1.0864         estimate D2E/DX2                !
 ! R12   R(6,7)                  1.4124         estimate D2E/DX2                !
 ! R13   R(6,19)                 1.4476         estimate D2E/DX2                !
 ! R14   R(7,8)                  1.3911         estimate D2E/DX2                !
 ! R15   R(7,20)                 1.4065         estimate D2E/DX2                !
 ! R16   R(8,9)                  1.3939         estimate D2E/DX2                !
 ! R17   R(8,27)                 1.0883         estimate D2E/DX2                !
 ! R18   R(9,10)                 1.4098         estimate D2E/DX2                !
 ! R19   R(9,28)                 1.086          estimate D2E/DX2                !
 ! R20   R(10,11)                1.4466         estimate D2E/DX2                !
 ! R21   R(10,19)                1.4256         estimate D2E/DX2                !
 ! R22   R(11,12)                1.4211         estimate D2E/DX2                !
 ! R23   R(11,16)                1.4148         estimate D2E/DX2                !
 ! R24   R(12,13)                1.3991         estimate D2E/DX2                !
 ! R25   R(12,29)                1.0859         estimate D2E/DX2                !
 ! R26   R(13,14)                1.3851         estimate D2E/DX2                !
 ! R27   R(13,30)                1.0869         estimate D2E/DX2                !
 ! R28   R(14,15)                1.391          estimate D2E/DX2                !
 ! R29   R(14,31)                1.0863         estimate D2E/DX2                !
 ! R30   R(15,16)                1.4062         estimate D2E/DX2                !
 ! R31   R(15,32)                1.0883         estimate D2E/DX2                !
 ! R32   R(16,17)                1.3906         estimate D2E/DX2                !
 ! R33   R(17,18)                1.3942         estimate D2E/DX2                !
 ! R34   R(17,33)                1.0882         estimate D2E/DX2                !
 ! R35   R(18,19)                1.4106         estimate D2E/DX2                !
 ! R36   R(18,34)                1.0859         estimate D2E/DX2                !
 ! R37   R(20,21)                1.4004         estimate D2E/DX2                !
 ! R38   R(20,35)                1.089          estimate D2E/DX2                !
 ! R39   R(21,22)                1.4055         estimate D2E/DX2                !
 ! R40   R(22,36)                1.0877         estimate D2E/DX2                !
 ! A1    A(2,1,22)             119.8616         estimate D2E/DX2                !
 ! A2    A(2,1,23)             120.1134         estimate D2E/DX2                !
 ! A3    A(22,1,23)            120.025          estimate D2E/DX2                !
 ! A4    A(1,2,3)              119.9006         estimate D2E/DX2                !
 ! A5    A(1,2,24)             120.1038         estimate D2E/DX2                !
 ! A6    A(3,2,24)             119.9957         estimate D2E/DX2                !
 ! A7    A(2,3,4)              120.8569         estimate D2E/DX2                !
 ! A8    A(2,3,25)             118.812          estimate D2E/DX2                !
 ! A9    A(4,3,25)             120.3311         estimate D2E/DX2                !
 ! A10   A(3,4,5)              121.7647         estimate D2E/DX2                !
 ! A11   A(3,4,21)             119.1509         estimate D2E/DX2                !
 ! A12   A(5,4,21)             119.0844         estimate D2E/DX2                !
 ! A13   A(4,5,6)              123.305          estimate D2E/DX2                !
 ! A14   A(4,5,26)             116.8734         estimate D2E/DX2                !
 ! A15   A(6,5,26)             119.8216         estimate D2E/DX2                !
 ! A16   A(5,6,7)              115.9967         estimate D2E/DX2                !
 ! A17   A(5,6,19)             124.7317         estimate D2E/DX2                !
 ! A18   A(7,6,19)             119.2717         estimate D2E/DX2                !
 ! A19   A(6,7,8)              119.6288         estimate D2E/DX2                !
 ! A20   A(6,7,20)             121.1265         estimate D2E/DX2                !
 ! A21   A(8,7,20)             119.2446         estimate D2E/DX2                !
 ! A22   A(7,8,9)              120.8583         estimate D2E/DX2                !
 ! A23   A(7,8,27)             120.692          estimate D2E/DX2                !
 ! A24   A(9,8,27)             118.4497         estimate D2E/DX2                !
 ! A25   A(8,9,10)             122.5532         estimate D2E/DX2                !
 ! A26   A(8,9,28)             116.2951         estimate D2E/DX2                !
 ! A27   A(10,9,28)            121.1517         estimate D2E/DX2                !
 ! A28   A(9,10,11)            122.2664         estimate D2E/DX2                !
 ! A29   A(9,10,19)            116.9938         estimate D2E/DX2                !
 ! A30   A(11,10,19)           120.7398         estimate D2E/DX2                !
 ! A31   A(10,11,12)           124.7349         estimate D2E/DX2                !
 ! A32   A(10,11,16)           119.2651         estimate D2E/DX2                !
 ! A33   A(12,11,16)           116.0            estimate D2E/DX2                !
 ! A34   A(11,12,13)           122.5985         estimate D2E/DX2                !
 ! A35   A(11,12,29)           120.9269         estimate D2E/DX2                !
 ! A36   A(13,12,29)           116.4746         estimate D2E/DX2                !
 ! A37   A(12,13,14)           119.876          estimate D2E/DX2                !
 ! A38   A(12,13,30)           119.9443         estimate D2E/DX2                !
 ! A39   A(14,13,30)           120.1797         estimate D2E/DX2                !
 ! A40   A(13,14,15)           119.3715         estimate D2E/DX2                !
 ! A41   A(13,14,31)           120.3761         estimate D2E/DX2                !
 ! A42   A(15,14,31)           120.2524         estimate D2E/DX2                !
 ! A43   A(14,15,16)           121.0918         estimate D2E/DX2                !
 ! A44   A(14,15,32)           118.5235         estimate D2E/DX2                !
 ! A45   A(16,15,32)           120.3847         estimate D2E/DX2                !
 ! A46   A(11,16,15)           121.0622         estimate D2E/DX2                !
 ! A47   A(11,16,17)           119.6204         estimate D2E/DX2                !
 ! A48   A(15,16,17)           119.3174         estimate D2E/DX2                !
 ! A49   A(16,17,18)           120.8091         estimate D2E/DX2                !
 ! A50   A(16,17,33)           120.6554         estimate D2E/DX2                !
 ! A51   A(18,17,33)           118.5355         estimate D2E/DX2                !
 ! A52   A(17,18,19)           122.6235         estimate D2E/DX2                !
 ! A53   A(17,18,34)           116.1789         estimate D2E/DX2                !
 ! A54   A(19,18,34)           121.1976         estimate D2E/DX2                !
 ! A55   A(6,19,10)            120.6942         estimate D2E/DX2                !
 ! A56   A(6,19,18)            122.3637         estimate D2E/DX2                !
 ! A57   A(10,19,18)           116.9421         estimate D2E/DX2                !
 ! A58   A(7,20,21)            121.7057         estimate D2E/DX2                !
 ! A59   A(7,20,35)            119.3965         estimate D2E/DX2                !
 ! A60   A(21,20,35)           118.8977         estimate D2E/DX2                !
 ! A61   A(4,21,20)            118.7816         estimate D2E/DX2                !
 ! A62   A(4,21,22)            119.4941         estimate D2E/DX2                !
 ! A63   A(20,21,22)           121.7243         estimate D2E/DX2                !
 ! A64   A(1,22,21)            120.736          estimate D2E/DX2                !
 ! A65   A(1,22,36)            118.8982         estimate D2E/DX2                !
 ! A66   A(21,22,36)           120.3659         estimate D2E/DX2                !
 ! D1    D(22,1,2,3)            -0.0028         estimate D2E/DX2                !
 ! D2    D(22,1,2,24)          179.9937         estimate D2E/DX2                !
 ! D3    D(23,1,2,3)          -179.9959         estimate D2E/DX2                !
 ! D4    D(23,1,2,24)            0.0006         estimate D2E/DX2                !
 ! D5    D(2,1,22,21)            0.0074         estimate D2E/DX2                !
 ! D6    D(2,1,22,36)          179.9963         estimate D2E/DX2                !
 ! D7    D(23,1,22,21)        -179.9995         estimate D2E/DX2                !
 ! D8    D(23,1,22,36)          -0.0106         estimate D2E/DX2                !
 ! D9    D(1,2,3,4)              0.003          estimate D2E/DX2                !
 ! D10   D(1,2,3,25)           179.9972         estimate D2E/DX2                !
 ! D11   D(24,2,3,4)          -179.9935         estimate D2E/DX2                !
 ! D12   D(24,2,3,25)            0.0007         estimate D2E/DX2                !
 ! D13   D(2,3,4,5)           -179.9974         estimate D2E/DX2                !
 ! D14   D(2,3,4,21)            -0.0077         estimate D2E/DX2                !
 ! D15   D(25,3,4,5)             0.0085         estimate D2E/DX2                !
 ! D16   D(25,3,4,21)          179.9981         estimate D2E/DX2                !
 ! D17   D(3,4,5,6)            179.9978         estimate D2E/DX2                !
 ! D18   D(3,4,5,26)            -0.0051         estimate D2E/DX2                !
 ! D19   D(21,4,5,6)             0.0082         estimate D2E/DX2                !
 ! D20   D(21,4,5,26)         -179.9947         estimate D2E/DX2                !
 ! D21   D(3,4,21,20)          179.9993         estimate D2E/DX2                !
 ! D22   D(3,4,21,22)            0.0122         estimate D2E/DX2                !
 ! D23   D(5,4,21,20)           -0.0108         estimate D2E/DX2                !
 ! D24   D(5,4,21,22)         -179.9979         estimate D2E/DX2                !
 ! D25   D(4,5,6,7)             -0.004          estimate D2E/DX2                !
 ! D26   D(4,5,6,19)           179.9995         estimate D2E/DX2                !
 ! D27   D(26,5,6,7)           179.999          estimate D2E/DX2                !
 ! D28   D(26,5,6,19)            0.0025         estimate D2E/DX2                !
 ! D29   D(5,6,7,8)           -179.9982         estimate D2E/DX2                !
 ! D30   D(5,6,7,20)             0.0027         estimate D2E/DX2                !
 ! D31   D(19,6,7,8)            -0.0015         estimate D2E/DX2                !
 ! D32   D(19,6,7,20)          179.9994         estimate D2E/DX2                !
 ! D33   D(5,6,19,10)          179.9999         estimate D2E/DX2                !
 ! D34   D(5,6,19,18)           -0.0005         estimate D2E/DX2                !
 ! D35   D(7,6,19,10)            0.0035         estimate D2E/DX2                !
 ! D36   D(7,6,19,18)         -179.9969         estimate D2E/DX2                !
 ! D37   D(6,7,8,9)             -0.0027         estimate D2E/DX2                !
 ! D38   D(6,7,8,27)           179.9998         estimate D2E/DX2                !
 ! D39   D(20,7,8,9)           179.9963         estimate D2E/DX2                !
 ! D40   D(20,7,8,27)           -0.0011         estimate D2E/DX2                !
 ! D41   D(6,7,20,21)           -0.0059         estimate D2E/DX2                !
 ! D42   D(6,7,20,35)         -179.9972         estimate D2E/DX2                !
 ! D43   D(8,7,20,21)          179.995          estimate D2E/DX2                !
 ! D44   D(8,7,20,35)            0.0038         estimate D2E/DX2                !
 ! D45   D(7,8,9,10)             0.0053         estimate D2E/DX2                !
 ! D46   D(7,8,9,28)           179.9995         estimate D2E/DX2                !
 ! D47   D(27,8,9,10)         -179.9972         estimate D2E/DX2                !
 ! D48   D(27,8,9,28)           -0.0031         estimate D2E/DX2                !
 ! D49   D(8,9,10,11)          179.9969         estimate D2E/DX2                !
 ! D50   D(8,9,10,19)           -0.0032         estimate D2E/DX2                !
 ! D51   D(28,9,10,11)           0.003          estimate D2E/DX2                !
 ! D52   D(28,9,10,19)        -179.9971         estimate D2E/DX2                !
 ! D53   D(9,10,11,12)          -0.0026         estimate D2E/DX2                !
 ! D54   D(9,10,11,16)         179.9977         estimate D2E/DX2                !
 ! D55   D(19,10,11,12)        179.9975         estimate D2E/DX2                !
 ! D56   D(19,10,11,16)         -0.0022         estimate D2E/DX2                !
 ! D57   D(9,10,19,6)           -0.0011         estimate D2E/DX2                !
 ! D58   D(9,10,19,18)         179.9992         estimate D2E/DX2                !
 ! D59   D(11,10,19,6)         179.9988         estimate D2E/DX2                !
 ! D60   D(11,10,19,18)         -0.0009         estimate D2E/DX2                !
 ! D61   D(10,11,12,13)        179.9987         estimate D2E/DX2                !
 ! D62   D(10,11,12,29)          0.0036         estimate D2E/DX2                !
 ! D63   D(16,11,12,13)         -0.0016         estimate D2E/DX2                !
 ! D64   D(16,11,12,29)       -179.9966         estimate D2E/DX2                !
 ! D65   D(10,11,16,15)       -180.0            estimate D2E/DX2                !
 ! D66   D(10,11,16,17)          0.0028         estimate D2E/DX2                !
 ! D67   D(12,11,16,15)          0.0003         estimate D2E/DX2                !
 ! D68   D(12,11,16,17)       -179.9969         estimate D2E/DX2                !
 ! D69   D(11,12,13,14)          0.0007         estimate D2E/DX2                !
 ! D70   D(11,12,13,30)       -179.9972         estimate D2E/DX2                !
 ! D71   D(29,12,13,14)        179.9959         estimate D2E/DX2                !
 ! D72   D(29,12,13,30)         -0.002          estimate D2E/DX2                !
 ! D73   D(12,13,14,15)          0.0016         estimate D2E/DX2                !
 ! D74   D(12,13,14,31)        179.9963         estimate D2E/DX2                !
 ! D75   D(30,13,14,15)        179.9995         estimate D2E/DX2                !
 ! D76   D(30,13,14,31)         -0.0058         estimate D2E/DX2                !
 ! D77   D(13,14,15,16)         -0.0029         estimate D2E/DX2                !
 ! D78   D(13,14,15,32)        179.9984         estimate D2E/DX2                !
 ! D79   D(31,14,15,16)       -179.9976         estimate D2E/DX2                !
 ! D80   D(31,14,15,32)          0.0037         estimate D2E/DX2                !
 ! D81   D(14,15,16,11)          0.0019         estimate D2E/DX2                !
 ! D82   D(14,15,16,17)        179.9992         estimate D2E/DX2                !
 ! D83   D(32,15,16,11)       -179.9994         estimate D2E/DX2                !
 ! D84   D(32,15,16,17)         -0.0022         estimate D2E/DX2                !
 ! D85   D(11,16,17,18)         -0.0003         estimate D2E/DX2                !
 ! D86   D(11,16,17,33)       -180.0            estimate D2E/DX2                !
 ! D87   D(15,16,17,18)       -179.9976         estimate D2E/DX2                !
 ! D88   D(15,16,17,33)          0.0027         estimate D2E/DX2                !
 ! D89   D(16,17,18,19)         -0.003          estimate D2E/DX2                !
 ! D90   D(16,17,18,34)       -179.996          estimate D2E/DX2                !
 ! D91   D(33,17,18,19)        179.9967         estimate D2E/DX2                !
 ! D92   D(33,17,18,34)          0.0037         estimate D2E/DX2                !
 ! D93   D(17,18,19,6)        -179.9961         estimate D2E/DX2                !
 ! D94   D(17,18,19,10)          0.0036         estimate D2E/DX2                !
 ! D95   D(34,18,19,6)          -0.0035         estimate D2E/DX2                !
 ! D96   D(34,18,19,10)        179.9962         estimate D2E/DX2                !
 ! D97   D(7,20,21,4)            0.0099         estimate D2E/DX2                !
 ! D98   D(7,20,21,22)         179.9967         estimate D2E/DX2                !
 ! D99   D(35,20,21,4)        -179.9988         estimate D2E/DX2                !
 ! D100  D(35,20,21,22)         -0.012          estimate D2E/DX2                !
 ! D101  D(4,21,22,1)           -0.0122         estimate D2E/DX2                !
 ! D102  D(4,21,22,36)         179.9991         estimate D2E/DX2                !
 ! D103  D(20,21,22,1)        -179.9989         estimate D2E/DX2                !
 ! D104  D(20,21,22,36)          0.0124         estimate D2E/DX2                !
 --------------------------------------------------------------------------------
 Trust Radius=3.00D-01 FncErr=1.00D-07 GrdErr=1.00D-06 EigMax=2.50D+02 EigMin=1.00D-04
 Number of steps in this run=    216 maximum allowed number of steps=    216.
 GradGradGradGradGradGradGradGradGradGradGradGradGradGradGradGradGradGrad

                          Input orientation:                          
 ---------------------------------------------------------------------
 Center     Atomic      Atomic             Coordinates (Angstroms)
 Number     Number       Type             X           Y           Z
 ---------------------------------------------------------------------
      1          6           0       -5.715100   -0.996900    0.990800
      2          6           0       -5.464800    0.260800    1.529600
      3          6           0       -4.181100    0.804500    1.460400
      4          6           0       -3.130200    0.096900    0.850900
      5          6           0       -1.827500    0.627300    0.770500
      6          6           0       -0.741100   -0.059300    0.162000
      7          6           0       -1.035400   -1.332900   -0.373100
      8          6           0       -0.028000   -2.070900   -0.985900
      9          6           0        1.269400   -1.570000   -1.079200
     10          6           0        1.633900   -0.307900   -0.567600
     11          6           0        2.982500    0.205900   -0.667800
     12          6           0        4.067600   -0.481100   -1.276100
     13          6           0        5.356200    0.059000   -1.348300
     14          6           0        5.610500    1.311000   -0.813300
     15          6           0        4.576000    2.017500   -0.208600
     16          6           0        3.278200    1.481500   -0.132100
     17          6           0        2.271600    2.219800    0.480700
     18          6           0        0.974000    1.718400    0.573800
     19          6           0        0.608100    0.455800    0.062300
     20          6           0       -2.332700   -1.871100   -0.297800
     21          6           0       -3.385100   -1.173100    0.307500
     22          6           0       -4.681600   -1.710500    0.382900
     23          1           0       -6.713300   -1.423500    1.042700
     24          1           0       -6.266900    0.820100    2.003900
     25          1           0       -4.005200    1.789300    1.887400
     26          1           0       -1.670600    1.611800    1.202300
     27          1           0       -0.235500   -3.054000   -1.404000
     28          1           0        1.997100   -2.207900   -1.572100
     29          1           0        3.930200   -1.465700   -1.713000
     30          1           0        6.154800   -0.504500   -1.823800
     31          1           0        6.608000    1.738100   -0.864800
     32          1           0        4.791200    2.999900    0.207200
     33          1           0        2.480300    3.202700    0.898400
     34          1           0        0.247700    2.357500    1.066900
     35          1           0       -2.528200   -2.855800   -0.719700
     36          1           0       -4.894800   -2.692600   -0.033200
 ---------------------------------------------------------------------
                    Distance matrix (angstroms):
                    1          2          3          4          5
     1  C    0.000000
     2  C    1.390958   0.000000
     3  C    2.412203   1.395809   0.000000
     4  C    2.810281   2.436771   1.405909   0.000000
     5  C    4.219004   3.733699   2.459023   1.408835   0.000000
     6  C    5.129004   4.928097   3.776982   2.491341   1.421955
     7  C    4.885971   5.077374   4.222041   2.816148   2.403670
     8  C    6.115875   6.428325   5.612535   4.206761   3.688282
     9  C    7.307297   7.450310   6.464965   5.085304   4.223779
    10  C    7.543947   7.423827   6.258150   4.987249   3.827062
    11  C    8.935655   8.728600   7.496981   6.299479   5.038093
    12  C   10.055153   9.964387   8.785343   7.527718   6.337928
    13  C   11.364858  11.198976   9.970188   8.766807   7.511180
    14  C   11.698307  11.369009  10.064874   8.980169   7.635425
    15  C   10.790362  10.340454   8.996873   8.012288   6.625414
    16  C    9.395894   8.982839   7.657385   6.629555   5.254761
    17  C    8.625238   8.049208   6.678340   5.815771   4.407115
    18  C    7.231238   6.670554   5.310022   4.421595   3.012904
    19  C    6.554030   6.250689   5.001271   3.837393   2.542264
    20  C    3.723620   4.206476   3.696848   2.414237   2.763783
    21  C    2.434511   2.806198   2.423571   1.404691   2.425268
    22  C    1.395310   2.411296   2.781498   2.427460   3.709640
    23  H    1.086777   2.152369   3.398602   3.897051   5.305744
    24  H    2.152288   1.086803   2.155504   3.419256   4.611585
    25  H    3.389773   2.143540   1.087704   2.168911   2.709259
    26  H    4.817471   4.040827   2.649709   2.132800   1.086420
    27  H    6.323982   6.851240   6.217762   4.836531   4.562333
    28  H    8.216630   8.449555   7.512707   6.121457   5.306006
    29  H   10.028067  10.087680   9.000970   7.672324   6.610562
    30  H   12.208970  12.118006  10.923840   9.681267   8.469267
    31  H   12.758616  12.396292  11.076229  10.023458   8.664049
    32  H   11.268131  10.697521   9.321612   8.461107   7.053632
    33  H    9.209221   8.495752   7.102215   6.412953   5.020576
    34  H    6.841986   6.102696   4.709662   4.070280   2.718069
    35  H    4.066651   4.836958   4.569760   3.398180   3.852747
    36  H    2.144030   3.389663   3.869098   3.417127   4.590860
                    6          7          8          9         10
     6  C    0.000000
     7  C    1.412445   0.000000
     8  C    2.423370   1.391051   0.000000
     9  C    2.804443   2.422168   1.393862   0.000000
    10  C    2.496947   2.865941   2.458669   1.409784   0.000000
    11  C    3.824146   4.312572   3.787891   2.501556   1.446635
    12  C    5.036829   5.251817   4.402910   3.009052   2.540643
    13  C    6.282680   6.613694   5.801501   4.407719   3.820946
    14  C    6.570522   7.166029   6.577212   5.216897   4.300529
    15  C    5.720314   6.537588   6.206128   4.955977   3.767269
    16  C    4.314549   5.156168   4.927421   3.774113   2.468873
    17  C    3.791072   4.928174   5.084209   4.219037   2.809780
    18  C    2.504269   3.774220   4.218467   3.692322   2.417468
    19  C    1.447622   2.467815   2.808480   2.417479   1.425580
    20  C    2.455041   1.406526   2.413513   3.698158   4.272037
    21  C    2.872709   2.451498   3.707971   4.872867   5.167662
    22  C    4.278177   3.742845   4.864103   6.129590   6.538828
    23  H    6.189010   5.852456   7.016237   8.261200   8.573994
    24  H    5.890705   6.136296   7.498044   8.486100   8.384965
    25  H    4.129004   4.865974   6.243005   6.921490   6.498055
    26  H    2.176872   3.399503   4.587879   4.896192   4.211593
    27  H    3.417048   2.159810   1.088278   2.138335   3.425680
    28  H    3.888615   3.376282   2.112683   1.086008   2.179664
    29  H    5.226340   5.144915   4.069679   2.737232   2.815215
    30  H    7.189926   7.381717   6.432939   5.055379   4.696299
    31  H    7.635066   8.251931   7.652427   6.284118   5.386661
    32  H    6.321953   7.284173   7.096562   5.911166   4.637930
    33  H    4.643312   5.877799   6.136205   5.306208   3.897417
    34  H    2.763601   4.164012   4.888837   4.590738   3.420161
    35  H    3.433880   2.160511   2.633995   4.025455   4.882418
    36  H    4.921950   4.106006   4.997989   6.352299   6.971105
                   11         12         13         14         15
    11  C    0.000000
    12  C    1.421070   0.000000
    13  C    2.473684   1.399075   0.000000
    14  C    2.854610   2.409636   1.385062   0.000000
    15  C    2.456013   2.764241   2.396529   1.391041   0.000000
    16  C    1.414768   2.404930   2.796557   2.435719   1.406212
    17  C    2.424917   3.688743   4.186771   3.694402   2.413777
    18  C    2.804157   4.222593   5.064756   4.856661   3.698110
    19  C    2.496652   3.825864   4.969074   5.149956   4.272765
    20  C    5.718582   6.622161   7.996751   8.572393   7.928386
    21  C    6.587805   7.650450   8.981652   9.399349   8.592171
    22  C    7.969629   8.989561  10.338550  10.792946   9.997550
    23  H    9.979443  11.067645  12.393043  12.759243  11.868215
    24  H    9.647104  10.920321  12.120766  12.216801  11.130921
    25  H    7.606849   8.962843  10.054825   9.999212   8.836418
    26  H    5.208183   6.591634   7.634963   7.560922   6.416794
    27  H    4.639446   5.015261   6.400077   7.319690   7.092223
    28  H    2.759566   2.712273   4.058630   5.100499   5.134575
    29  H    2.187424   1.085909   2.119243   3.367927   3.848761
    30  H    3.450289   2.157991   1.086920   2.147886   3.385552
    31  H    3.940900   3.398183   2.149454   1.086312   2.153529
    32  H    3.441432   3.852420   3.374566   2.136599   1.088260
    33  H    3.418479   4.562713   4.816774   4.038143   2.649926
    34  H    3.888148   5.304614   6.100251   5.778403   4.525117
    35  H    6.304325   7.032308   8.429410   9.143819   8.630176
    36  H    8.417593   9.314513  10.695036  11.269370  10.578840
                   16         17         18         19         20
    16  C    0.000000
    17  C    1.390631   0.000000
    18  C    2.421519   1.394215   0.000000
    19  C    2.866930   2.460485   1.410558   0.000000
    20  C    6.538316   6.208148   4.957667   3.767286   0.000000
    21  C    7.186078   6.598486   5.237694   4.319616   1.400406
    22  C    8.591420   7.987729   6.616616   5.725082   2.450811
    23  H   10.471354   9.711741   8.317811   7.622063   4.602928
    24  H    9.803514   8.785515   7.435238   7.153192   5.293232
    25  H    7.564459   6.446887   5.150049   5.137290   4.579398
    26  H    5.127204   4.053555   2.720346   2.797930   3.849580
    27  H    5.876613   6.136009   5.305694   3.896202   2.649751
    28  H    4.162510   4.888135   4.589929   3.419924   4.525974
    29  H    3.407394   4.598498   4.909895   4.228499   6.433588
    30  H    3.883410   5.273687   6.126211   5.936786   8.731204
    31  H    3.419102   4.565826   5.814801   6.205047   9.658361
    32  H    2.170215   2.651743   4.043223   4.898139   8.644745
    33  H    2.158959   1.088173   2.139498   3.427777   7.095020
    34  H    3.374746   2.111578   1.085867   2.180727   5.138281
    35  H    7.271295   7.088071   5.904393   4.627591   1.088969
    36  H    9.177735   8.703623   7.366694   6.340619   2.703559
                   21         22         23         24         25
    21  C    0.000000
    22  C    1.405488   0.000000
    23  H    3.417621   2.155345   0.000000
    24  H    3.892992   3.397757   2.481314   0.000000
    25  H    3.414150   3.869062   4.285955   2.463373   0.000000
    26  H    3.390552   4.557984   5.887898   4.732370   2.439513
    27  H    4.048086   4.976526   7.113843   7.937268   6.964302
    28  H    5.794116   6.976709   9.128172   9.500013   7.998334
    29  H    7.594844   8.866556  10.994533  11.091487   9.302068
    30  H    9.797916  11.124366  13.215498  13.065393  11.057130
    31  H   10.474322  11.870327  13.823578  13.222527  10.964362
    32  H    9.180189  10.580769  12.353868  11.413204   9.036884
    33  H    7.341642   8.700465  10.292950   9.133040   6.711001
    34  H    5.122408   6.427634   7.921620   6.758815   4.368436
    35  H    2.149627   2.676672   4.761575   5.908309   5.527699
    36  H    2.168905   1.087710   2.464775   4.286198   4.956563
                   26         27         28         29         30
    26  H    0.000000
    27  H    5.533715   0.000000
    28  H    5.978246   2.393459   0.000000
    29  H    7.024168   4.468919   2.075473   0.000000
    30  H    8.652912   6.892903   4.500155   2.425908   0.000000
    31  H    8.533702   8.371885   6.109958   4.260797   2.480791
    32  H    6.683704   8.032022   6.172041   4.936605   4.273779
    33  H    4.455703   7.198813   5.967533   5.542164   5.886905
    34  H    2.062590   5.968514   5.555862   5.992121   7.172240
    35  H    4.938523   2.400838   4.650237   6.680565   9.063230
    36  H    5.518132   4.870193   7.078237   9.066843  11.405599
                   31         32         33         34         35
    31  H    0.000000
    32  H    2.458065   0.000000
    33  H    4.721423   2.420567   0.000000
    34  H    6.675967   4.668528   2.393169   0.000000
    35  H   10.227176   9.419235   8.025506   6.170580   0.000000
    36  H   12.354638  11.237479   9.487599   7.291024   2.469557
                   36
    36  H    0.000000
 Stoichiometry    C22H14
 Framework group  CS[SG(C22H14)]
 Deg. of freedom    69
 Full point group                 CS      NOp   2
 Largest Abelian subgroup         CS      NOp   2
 Largest concise Abelian subgroup C1      NOp   1
                         Standard orientation:                         
 ---------------------------------------------------------------------
 Center     Atomic      Atomic             Coordinates (Angstroms)
 Number     Number       Type             X           Y           Z
 ---------------------------------------------------------------------
      1          6           0        0.631973   -5.854101    0.000000
      2          6           0       -0.742068   -5.637821    0.000000
      3          6           0       -1.241266   -4.334331    0.000000
      4          6           0       -0.372076   -3.229303    0.000000
      5          6           0       -0.855024   -1.905831    0.000000
      6          6           0       -0.006274   -0.764963    0.000000
      7          6           0        1.381837   -1.026015   -0.000000
      8          6           0        2.281177    0.035216   -0.000000
      9          6           0        1.830553    1.354227   -0.000000
     10          6           0        0.460827    1.687904   -0.000000
     11          6           0        0.000000    3.059178   -0.000000
     12          6           0        0.849064    4.198709   -0.000000
     13          6           0        0.354258    5.507364   -0.000000
     14          6           0       -1.013125    5.727956   -0.000000
     15          6           0       -1.879748    4.639858   -0.000000
     16          6           0       -1.390216    3.321605   -0.000000
     17          6           0       -2.289850    2.261174    0.000000
     18          6           0       -1.838683    0.941976    0.000000
     19          6           0       -0.468507    0.606878    0.000000
     20          6           0        1.873855   -2.343677   -0.000000
     21          6           0        1.015179   -3.449938    0.000000
     22          6           0        1.506408   -4.766787    0.000000
     23          1           0        1.024416   -6.867547    0.000000
     24          1           0       -1.426737   -6.481841    0.000000
     25          1           0       -2.318760   -4.185648    0.000000
     26          1           0       -1.933744   -1.776709    0.000000
     27          1           0        3.354254   -0.146043   -0.000000
     28          1           0        2.596367    2.124255   -0.000000
     29          1           0        1.929485    4.089670   -0.000000
     30          1           0        1.043337    6.347937   -0.000000
     31          1           0       -1.406170    6.740670   -0.000000
     32          1           0       -2.951435    4.829062    0.000000
     33          1           0       -3.362611    2.443674    0.000000
     34          1           0       -2.605708    0.173353    0.000000
     35          1           0        2.949652   -2.512542   -0.000000
     36          1           0        2.577894   -4.953957   -0.000000
 ---------------------------------------------------------------------
 Rotational constants (GHZ):           1.0300135           0.1401705           0.1233802
 Standard basis: def2SVPP (5D, 7F)
 There are   270 symmetry adapted cartesian basis functions of A'  symmetry.
 There are    88 symmetry adapted cartesian basis functions of A"  symmetry.
 There are   248 symmetry adapted basis functions of A'  symmetry.
 There are    88 symmetry adapted basis functions of A"  symmetry.
   336 basis functions,   606 primitive gaussians,   358 cartesian basis functions
    73 alpha electrons       73 beta electrons
       nuclear repulsion energy      1526.3266165167 Hartrees.
 NAtoms=   36 NActive=   36 NUniq=   36 SFac= 1.00D+00 NAtFMM=   60 NAOKFM=F Big=F
 Integral buffers will be    131072 words long.
 Raffenetti 2 integral format.
 Two-electron integral symmetry is turned on.
 Nuclear repulsion after empirical dispersion term =     1526.2350559692 Hartrees.
 One-electron integrals computed using PRISM.
   2 Symmetry operations used in ECPInt.
 ECPInt:  NShTT=   12880 NPrTT=   51688 LenC2=   11490 LenP2D=   31346.
 LDataN:  DoStor=T MaxTD1= 4 Len=   56
 NBasis=   336 RedAO= T EigKep=  2.02D-04  NBF=   248    88
 NBsUse=   336 1.00D-06 EigRej= -1.00D+00 NBFU=   248    88
 ExpMin= 1.22D-01 ExpMax= 1.24D+03 ExpMxC= 1.86D+02 IAcc=3 IRadAn=         5 AccDes= 0.00D+00
 Harris functional with IExCor=  402 and IRadAn=       5 diagonalized for initial guess.
 HarFok:  IExCor=  402 AccDes= 0.00D+00 IRadAn=         5 IDoV= 1 UseB2=F ITyADJ=14
 ICtDFT=  3500011 ScaDFX=  1.000000  1.000000  1.000000  1.000000
 FoFCou: FMM=F IPFlag=           0 FMFlag=      100000 FMFlg1=           0
         NFxFlg=           0 DoJE=T BraDBF=F KetDBF=T FulRan=T
         wScrn=  0.000000 ICntrl=       500 IOpCl=  0 I1Cent=   200000004 NGrid=           0
         NMat0=    1 NMatS0=      1 NMatT0=    0 NMatD0=    1 NMtDS0=    0 NMtDT0=    0
 Petite list used in FoFCou.
 Initial guess orbital symmetries:
       Occupied  (A') (A') (A') (A') (A') (A') (A') (A') (A') (A')
                 (A') (A') (A') (A') (A') (A') (A') (A') (A') (A')
                 (A') (A') (A') (A') (A') (A') (A') (A') (A') (A')
                 (A') (A') (A') (A') (A') (A') (A') (A') (A') (A')
                 (A') (A') (A') (A') (A') (A') (A') (A') (A') (A')
                 (A') (A') (A') (A') (A') (A') (A") (A') (A") (A')
                 (A') (A') (A") (A') (A') (A") (A") (A") (A") (A")
                 (A") (A") (A")
       Virtual   (A") (A") (A") (A") (A") (A") (A") (A") (A") (A')
                 (A') (A') (A') (A') (A') (A") (A') (A') (A') (A')
                 (A') (A") (A') (A') (A') (A') (A') (A') (A') (A')
                 (A') (A') (A') (A') (A') (A') (A') (A') (A') (A')
                 (A') (A') (A') (A') (A') (A') (A') (A') (A') (A')
                 (A') (A') (A') (A') (A') (A') (A') (A") (A") (A')
                 (A') (A') (A') (A") (A') (A") (A') (A') (A") (A")
                 (A') (A') (A') (A') (A") (A') (A") (A") (A') (A")
                 (A") (A") (A") (A") (A') (A') (A') (A') (A') (A')
                 (A") (A') (A') (A') (A") (A') (A') (A') (A") (A')
                 (A') (A') (A") (A') (A') (A') (A") (A') (A') (A')
                 (A') (A') (A") (A') (A') (A") (A') (A') (A') (A')
                 (A") (A') (A') (A') (A') (A') (A') (A') (A') (A')
                 (A') (A') (A') (A') (A') (A') (A") (A") (A') (A")
                 (A") (A') (A") (A') (A') (A') (A') (A") (A') (A")
                 (A") (A') (A') (A") (A') (A") (A') (A") (A") (A')
                 (A") (A") (A") (A") (A") (A") (A') (A') (A') (A')
                 (A') (A') (A') (A') (A') (A') (A') (A') (A") (A")
                 (A') (A') (A') (A') (A') (A") (A') (A') (A') (A")
                 (A') (A') (A") (A') (A') (A') (A") (A') (A') (A')
                 (A') (A") (A') (A') (A") (A') (A') (A') (A") (A')
                 (A") (A") (A') (A') (A") (A') (A") (A') (A") (A")
                 (A") (A') (A") (A") (A") (A") (A') (A") (A') (A')
                 (A') (A') (A') (A') (A") (A') (A') (A') (A") (A")
                 (A') (A') (A') (A') (A") (A') (A") (A') (A') (A')
                 (A') (A') (A') (A') (A') (A') (A') (A') (A') (A')
                 (A') (A') (A')
 The electronic state of the initial guess is 1-A'.
 Requested convergence on RMS density matrix=1.00D-08 within 128 cycles.
 Requested convergence on MAX density matrix=1.00D-06.
 Requested convergence on             energy=1.00D-06.
 No special actions if energy rises.
 Integral accuracy reduced to 1.0D-05 until final iterations.
 Initial convergence to 1.0D-05 achieved.  Increase integral accuracy.
 SCF Done:  E(RB3LYP) =  -846.266362988     A.U. after   16 cycles
            NFock= 16  Conv=0.46D-08     -V/T= 2.0105

 **********************************************************************

            Population analysis using the SCF Density.

 **********************************************************************

 Orbital symmetries:
       Occupied  (A') (A') (A') (A') (A') (A') (A') (A') (A') (A')
                 (A') (A') (A') (A') (A') (A') (A') (A') (A') (A')
                 (A') (A') (A') (A') (A') (A') (A') (A') (A') (A')
                 (A') (A') (A') (A') (A') (A') (A') (A') (A') (A')
                 (A') (A') (A') (A') (A') (A') (A') (A') (A') (A')
                 (A') (A') (A') (A") (A') (A') (A") (A') (A') (A")
                 (A') (A') (A') (A') (A") (A') (A") (A") (A") (A")
                 (A") (A") (A")
       Virtual   (A") (A") (A") (A") (A") (A") (A") (A') (A') (A')
                 (A") (A') (A') (A') (A') (A') (A') (A") (A') (A')
                 (A') (A") (A') (A') (A') (A") (A') (A') (A') (A')
                 (A') (A') (A') (A') (A') (A') (A') (A') (A') (A')
                 (A') (A') (A') (A') (A') (A') (A') (A') (A') (A')
                 (A') (A') (A') (A') (A") (A') (A') (A") (A') (A')
                 (A') (A") (A') (A') (A") (A') (A') (A") (A') (A")
                 (A') (A') (A") (A") (A') (A') (A") (A') (A") (A")
                 (A') (A") (A") (A") (A') (A") (A') (A') (A") (A')
                 (A') (A') (A') (A") (A') (A') (A') (A") (A') (A')
                 (A") (A') (A') (A') (A') (A') (A') (A") (A') (A')
                 (A') (A") (A') (A') (A') (A') (A') (A') (A') (A")
                 (A') (A') (A') (A') (A') (A') (A') (A') (A') (A')
                 (A') (A') (A') (A') (A') (A') (A') (A") (A") (A')
                 (A") (A") (A') (A") (A') (A') (A') (A') (A") (A')
                 (A') (A') (A") (A") (A') (A") (A") (A') (A") (A")
                 (A') (A") (A") (A") (A") (A") (A") (A') (A') (A')
                 (A') (A') (A') (A') (A') (A") (A') (A') (A') (A")
                 (A') (A') (A') (A') (A") (A') (A') (A') (A") (A')
                 (A') (A') (A") (A') (A') (A") (A') (A') (A') (A')
                 (A") (A') (A') (A') (A") (A') (A') (A') (A") (A')
                 (A") (A") (A') (A') (A") (A') (A") (A") (A') (A")
                 (A") (A") (A') (A") (A") (A") (A') (A") (A') (A')
                 (A') (A') (A') (A') (A") (A') (A') (A") (A") (A')
                 (A') (A') (A') (A') (A") (A") (A') (A') (A') (A')
                 (A') (A') (A') (A') (A') (A') (A') (A') (A') (A')
                 (A') (A') (A')
 The electronic state is 1-A'.
 Alpha  occ. eigenvalues --  -10.20310 -10.20295 -10.20272 -10.20212 -10.19606
 Alpha  occ. eigenvalues --  -10.19448 -10.19415 -10.19409 -10.19333 -10.19252
 Alpha  occ. eigenvalues --  -10.19107 -10.19045 -10.19034 -10.19014 -10.19003
 Alpha  occ. eigenvalues --  -10.18995 -10.18989 -10.18952 -10.18928 -10.18876
 Alpha  occ. eigenvalues --  -10.18861 -10.18845  -0.88923  -0.87366  -0.84889
 Alpha  occ. eigenvalues --   -0.81477  -0.79789  -0.77673  -0.76389  -0.75295
 Alpha  occ. eigenvalues --   -0.72778  -0.71834  -0.69352  -0.65092  -0.63266
 Alpha  occ. eigenvalues --   -0.62878  -0.60207  -0.60135  -0.59419  -0.54907
 Alpha  occ. eigenvalues --   -0.53224  -0.52495  -0.52229  -0.49525  -0.48669
 Alpha  occ. eigenvalues --   -0.47690  -0.46056  -0.45337  -0.44896  -0.43574
 Alpha  occ. eigenvalues --   -0.43193  -0.42345  -0.41830  -0.41767  -0.40838
 Alpha  occ. eigenvalues --   -0.40500  -0.39807  -0.39602  -0.38536  -0.36773
 Alpha  occ. eigenvalues --   -0.36723  -0.35535  -0.34644  -0.33700  -0.32938
 Alpha  occ. eigenvalues --   -0.32798  -0.31513  -0.29760  -0.27670  -0.26834
 Alpha  occ. eigenvalues --   -0.23684  -0.22577  -0.19331
 Alpha virt. eigenvalues --   -0.07782  -0.04522  -0.03700  -0.00155   0.00900
 Alpha virt. eigenvalues --    0.02502   0.06123   0.06327   0.06337   0.06639
 Alpha virt. eigenvalues --    0.08150   0.08287   0.08500   0.10286   0.10901
 Alpha virt. eigenvalues --    0.12365   0.12741   0.13964   0.14187   0.14643
 Alpha virt. eigenvalues --    0.16768   0.18794   0.19192   0.21048   0.22682
 Alpha virt. eigenvalues --    0.22950   0.23862   0.24227   0.25888   0.26659
 Alpha virt. eigenvalues --    0.27115   0.27771   0.28467   0.28726   0.29341
 Alpha virt. eigenvalues --    0.30221   0.30724   0.31528   0.32044   0.32851
 Alpha virt. eigenvalues --    0.33593   0.34569   0.35459   0.35581   0.36336
 Alpha virt. eigenvalues --    0.37211   0.37655   0.38429   0.39115   0.40257
 Alpha virt. eigenvalues --    0.41480   0.42728   0.43157   0.43642   0.44521
 Alpha virt. eigenvalues --    0.44879   0.45409   0.45798   0.45929   0.46875
 Alpha virt. eigenvalues --    0.47216   0.47652   0.47700   0.48211   0.48366
 Alpha virt. eigenvalues --    0.48985   0.49901   0.50028   0.50236   0.50559
 Alpha virt. eigenvalues --    0.51226   0.52514   0.53076   0.54335   0.54380
 Alpha virt. eigenvalues --    0.54977   0.56067   0.57021   0.57176   0.58602
 Alpha virt. eigenvalues --    0.59839   0.60041   0.60468   0.62046   0.64833
 Alpha virt. eigenvalues --    0.65223   0.65355   0.66309   0.66673   0.67342
 Alpha virt. eigenvalues --    0.67571   0.67710   0.68333   0.68658   0.69281
 Alpha virt. eigenvalues --    0.69656   0.70484   0.70701   0.71142   0.72576
 Alpha virt. eigenvalues --    0.72894   0.72993   0.73570   0.74051   0.74828
 Alpha virt. eigenvalues --    0.75257   0.76372   0.77102   0.77176   0.77703
 Alpha virt. eigenvalues --    0.78629   0.78799   0.79258   0.80102   0.80865
 Alpha virt. eigenvalues --    0.81109   0.83251   0.83725   0.84499   0.84825
 Alpha virt. eigenvalues --    0.86534   0.88026   0.89642   0.89942   0.91402
 Alpha virt. eigenvalues --    0.95954   0.97916   0.98559   1.02827   1.08625
 Alpha virt. eigenvalues --    1.09836   1.11524   1.12989   1.13966   1.15004
 Alpha virt. eigenvalues --    1.17680   1.20170   1.21100   1.22099   1.22480
 Alpha virt. eigenvalues --    1.23862   1.24411   1.25427   1.25893   1.26290
 Alpha virt. eigenvalues --    1.27567   1.29416   1.31123   1.33569   1.35324
 Alpha virt. eigenvalues --    1.35671   1.37357   1.37411   1.38959   1.39395
 Alpha virt. eigenvalues --    1.40010   1.41507   1.41674   1.44250   1.45676
 Alpha virt. eigenvalues --    1.46047   1.46839   1.48013   1.48594   1.49245
 Alpha virt. eigenvalues --    1.49314   1.50160   1.50497   1.52344   1.53682
 Alpha virt. eigenvalues --    1.54857   1.67965   1.70157   1.71158   1.72434
 Alpha virt. eigenvalues --    1.73781   1.74151   1.74507   1.75545   1.77221
 Alpha virt. eigenvalues --    1.80730   1.81248   1.83268   1.83600   1.84377
 Alpha virt. eigenvalues --    1.84770   1.86188   1.87173   1.87716   1.88415
 Alpha virt. eigenvalues --    1.89509   1.92463   1.92789   1.94350   1.95102
 Alpha virt. eigenvalues --    2.00189   2.00639   2.01612   2.04219   2.05781
 Alpha virt. eigenvalues --    2.07680   2.07682   2.08971   2.09728   2.11657
 Alpha virt. eigenvalues --    2.12774   2.15353   2.16165   2.16320   2.17252
 Alpha virt. eigenvalues --    2.18714   2.19589   2.20812   2.22209   2.23736
 Alpha virt. eigenvalues --    2.25280   2.25691   2.28111   2.28355   2.28919
 Alpha virt. eigenvalues --    2.29159   2.32548   2.33167   2.34102   2.35632
 Alpha virt. eigenvalues --    2.36349   2.39034   2.40011   2.44627   2.47891
 Alpha virt. eigenvalues --    2.48500   2.52287   2.55733   2.57194   2.57317
 Alpha virt. eigenvalues --    2.60541   2.62035   2.62461   2.63326   2.63834
 Alpha virt. eigenvalues --    2.64692   2.65248   2.66931   2.67305   2.67726
 Alpha virt. eigenvalues --    2.69927   2.71453   2.73725   2.76094   2.78665
 Alpha virt. eigenvalues --    2.81936   2.84594   2.87675   2.90151   2.93032
 Alpha virt. eigenvalues --    2.98455   3.03180   3.07566   3.25869   3.36743
 Alpha virt. eigenvalues --    3.38372   3.47313   3.53921
          Condensed to atoms (all electrons):
               1          2          3          4          5          6
     1  C    5.240409   0.141668   0.147609  -0.158546  -0.002415   0.000261
     2  C    0.141668   5.238774   0.226070   0.143602   0.019833  -0.001105
     3  C    0.147609   0.226070   5.457155   0.208449  -0.154975   0.017708
     4  C   -0.158546   0.143602   0.208449   5.410547   0.252262   0.119818
     5  C   -0.002415   0.019833  -0.154975   0.252262   5.702757   0.281854
     6  C    0.000261  -0.001105   0.017708   0.119818   0.281854   5.533522
     7  C   -0.001314   0.000328  -0.001941  -0.150472   0.014742   0.023017
     8  C    0.000019  -0.000005   0.000091  -0.001608   0.027233   0.031666
     9  C   -0.000000   0.000000  -0.000005   0.000024  -0.003503  -0.137707
    10  C    0.000000  -0.000000   0.000011   0.000694   0.020030   0.005758
    11  C    0.000000  -0.000000   0.000000   0.000002   0.000017   0.025642
    12  C    0.000000  -0.000000   0.000000  -0.000000   0.000007  -0.000002
    13  C   -0.000000   0.000000  -0.000000  -0.000000  -0.000000   0.000002
    14  C    0.000000   0.000000  -0.000000   0.000000   0.000000  -0.000002
    15  C   -0.000000  -0.000000   0.000000  -0.000000  -0.000002   0.000071
    16  C   -0.000000  -0.000000   0.000000   0.000008  -0.000092  -0.003637
    17  C   -0.000000   0.000000  -0.000001  -0.000118   0.001015   0.021952
    18  C   -0.000000   0.000001  -0.000060   0.000182  -0.029965  -0.146584
    19  C   -0.000004   0.000004  -0.000479   0.023260  -0.150896   0.224413
    20  C    0.020267  -0.002306   0.026656   0.030277  -0.146101   0.033955
    21  C    0.146443  -0.160880   0.045059  -0.039497   0.021789  -0.133848
    22  C    0.221289   0.147982  -0.177065   0.046417   0.026405  -0.001328
    23  H    0.436325  -0.084799   0.015129  -0.001401   0.000048  -0.000001
    24  H   -0.084887   0.436417  -0.076694   0.015750  -0.000513   0.000006
    25  H    0.015421  -0.081317   0.434135  -0.076108  -0.023463   0.000513
    26  H   -0.000010   0.000492  -0.018568  -0.083068   0.414224  -0.051424
    27  H    0.000000  -0.000000   0.000001  -0.000024  -0.000405   0.016299
    28  H   -0.000000   0.000000   0.000000  -0.000002   0.000051  -0.001672
    29  H    0.000000  -0.000000   0.000000   0.000000   0.000000   0.000034
    30  H    0.000000  -0.000000   0.000000  -0.000000   0.000000  -0.000000
    31  H   -0.000000   0.000000   0.000000  -0.000000  -0.000000   0.000000
    32  H   -0.000000   0.000000  -0.000000  -0.000000  -0.000000  -0.000001
    33  H    0.000000   0.000000  -0.000000  -0.000001   0.000002  -0.000370
    34  H   -0.000000   0.000000  -0.000045   0.001968   0.009948  -0.041426
    35  H    0.000541  -0.000021  -0.000355   0.019359  -0.002679   0.017341
    36  H   -0.081853   0.015573  -0.002107   0.018076  -0.000323  -0.000009
               7          8          9         10         11         12
     1  C   -0.001314   0.000019  -0.000000   0.000000   0.000000   0.000000
     2  C    0.000328  -0.000005   0.000000  -0.000000  -0.000000  -0.000000
     3  C   -0.001941   0.000091  -0.000005   0.000011   0.000000   0.000000
     4  C   -0.150472  -0.001608   0.000024   0.000694   0.000002  -0.000000
     5  C    0.014742   0.027233  -0.003503   0.020030   0.000017   0.000007
     6  C    0.023017   0.031666  -0.137707   0.005758   0.025642  -0.000002
     7  C    5.506534   0.152524   0.154566  -0.175160  -0.003852  -0.000110
     8  C    0.152524   5.492656   0.228335   0.138033   0.022286   0.001160
     9  C    0.154566   0.228335   5.513281   0.172235  -0.145671  -0.027920
    10  C   -0.175160   0.138033   0.172235   5.611944   0.241647  -0.148111
    11  C   -0.003852   0.022286  -0.145671   0.241647   5.548212   0.249674
    12  C   -0.000110   0.001160  -0.027920  -0.148111   0.249674   5.441406
    13  C    0.000007  -0.000094   0.000359   0.022202   0.123356   0.249764
    14  C   -0.000001   0.000007   0.000012  -0.004478  -0.156286   0.145325
    15  C    0.000003  -0.000004  -0.000366   0.026314   0.046165  -0.175817
    16  C   -0.000383   0.000192   0.025088   0.009599   0.057095   0.026986
    17  C    0.000281  -0.000083  -0.003484  -0.147576   0.025114   0.028744
    18  C    0.025742  -0.003658   0.027998  -0.002611  -0.136316  -0.003798
    19  C    0.015231  -0.151560   0.004396   0.169184  -0.001513   0.019066
    20  C    0.225612  -0.163654   0.020265  -0.000648   0.000080  -0.000002
    21  C    0.154795   0.022691  -0.001476  -0.000114  -0.000003   0.000000
    22  C    0.019038  -0.001093   0.000018  -0.000005  -0.000000  -0.000000
    23  H    0.000009  -0.000000   0.000000  -0.000000   0.000000   0.000000
    24  H   -0.000002   0.000000  -0.000000   0.000000  -0.000000   0.000000
    25  H   -0.000008   0.000001  -0.000000   0.000000   0.000000   0.000000
    26  H    0.019879  -0.000316  -0.000013  -0.001479   0.000031   0.000000
    27  H   -0.091334   0.444593  -0.077027   0.017054  -0.000379   0.000006
    28  H    0.017365  -0.078084   0.424536  -0.058412  -0.039497   0.009105
    29  H   -0.000076   0.001528   0.011532  -0.040954  -0.048456   0.417378
    30  H    0.000000  -0.000001   0.000002  -0.000262   0.015808  -0.074607
    31  H    0.000000  -0.000000  -0.000000   0.000055  -0.001169   0.015153
    32  H    0.000000  -0.000000   0.000009  -0.000155   0.017053  -0.002343
    33  H    0.000010  -0.000001   0.000046  -0.001875   0.016441  -0.000329
    34  H   -0.001329  -0.000036  -0.000293   0.018008  -0.001687   0.000046
    35  H   -0.085050  -0.021008   0.001131  -0.000073  -0.000001  -0.000000
    36  H    0.000720  -0.000048   0.000001  -0.000000  -0.000000  -0.000000
              13         14         15         16         17         18
     1  C   -0.000000   0.000000  -0.000000  -0.000000  -0.000000  -0.000000
     2  C    0.000000   0.000000  -0.000000  -0.000000   0.000000   0.000001
     3  C   -0.000000  -0.000000   0.000000   0.000000  -0.000001  -0.000060
     4  C   -0.000000   0.000000  -0.000000   0.000008  -0.000118   0.000182
     5  C   -0.000000   0.000000  -0.000002  -0.000092   0.001015  -0.029965
     6  C    0.000002  -0.000002   0.000071  -0.003637   0.021952  -0.146584
     7  C    0.000007  -0.000001   0.000003  -0.000383   0.000281   0.025742
     8  C   -0.000094   0.000007  -0.000004   0.000192  -0.000083  -0.003658
     9  C    0.000359   0.000012  -0.000366   0.025088  -0.003484   0.027998
    10  C    0.022202  -0.004478   0.026314   0.009599  -0.147576  -0.002611
    11  C    0.123356  -0.156286   0.046165   0.057095   0.025114  -0.136316
    12  C    0.249764   0.145325  -0.175817   0.026986   0.028744  -0.003798
    13  C    5.212809   0.156451   0.151191  -0.172393  -0.002229   0.000168
    14  C    0.156451   5.242128   0.196583   0.154200   0.022198  -0.001415
    15  C    0.151191   0.196583   5.465813   0.216344  -0.162484   0.019376
    16  C   -0.172393   0.154200   0.216344   5.490990   0.174289   0.151009
    17  C   -0.002229   0.022198  -0.162484   0.174289   5.478917   0.226750
    18  C    0.000168  -0.001415   0.019376   0.151009   0.226750   5.503393
    19  C    0.000428  -0.000039  -0.000667  -0.169795   0.133119   0.195514
    20  C   -0.000000   0.000000  -0.000000   0.000002  -0.000001  -0.000481
    21  C    0.000000  -0.000000   0.000000  -0.000001   0.000005   0.000062
    22  C    0.000000  -0.000000   0.000000   0.000000  -0.000000   0.000001
    23  H   -0.000000   0.000000   0.000000  -0.000000   0.000000   0.000000
    24  H   -0.000000   0.000000  -0.000000   0.000000  -0.000000  -0.000000
    25  H   -0.000000   0.000000  -0.000000   0.000000  -0.000000   0.000003
    26  H    0.000000  -0.000000  -0.000000  -0.000067   0.001420   0.012487
    27  H   -0.000001   0.000000  -0.000000   0.000010  -0.000001   0.000049
    28  H    0.001363  -0.000069   0.000038  -0.001007  -0.000052  -0.000286
    29  H   -0.081701   0.015897  -0.001922   0.019584  -0.000286  -0.000020
    30  H    0.436625  -0.086810   0.015668  -0.001733   0.000028  -0.000001
    31  H   -0.084811   0.436624  -0.078791   0.015698  -0.000559   0.000010
    32  H    0.016375  -0.083479   0.441453  -0.080754  -0.022718   0.001101
    33  H   -0.000067   0.001033  -0.020213  -0.090611   0.442902  -0.076441
    34  H   -0.000002   0.000016  -0.000620   0.017185  -0.079415   0.422190
    35  H   -0.000000   0.000000  -0.000000   0.000000  -0.000000   0.000011
    36  H    0.000000  -0.000000   0.000000  -0.000000   0.000000   0.000000
              19         20         21         22         23         24
     1  C   -0.000004   0.020267   0.146443   0.221289   0.436325  -0.084887
     2  C    0.000004  -0.002306  -0.160880   0.147982  -0.084799   0.436417
     3  C   -0.000479   0.026656   0.045059  -0.177065   0.015129  -0.076694
     4  C    0.023260   0.030277  -0.039497   0.046417  -0.001401   0.015750
     5  C   -0.150896  -0.146101   0.021789   0.026405   0.000048  -0.000513
     6  C    0.224413   0.033955  -0.133848  -0.001328  -0.000001   0.000006
     7  C    0.015231   0.225612   0.154795   0.019038   0.000009  -0.000002
     8  C   -0.151560  -0.163654   0.022691  -0.001093  -0.000000   0.000000
     9  C    0.004396   0.020265  -0.001476   0.000018   0.000000  -0.000000
    10  C    0.169184  -0.000648  -0.000114  -0.000005  -0.000000   0.000000
    11  C   -0.001513   0.000080  -0.000003  -0.000000   0.000000  -0.000000
    12  C    0.019066  -0.000002   0.000000  -0.000000   0.000000   0.000000
    13  C    0.000428  -0.000000   0.000000   0.000000  -0.000000  -0.000000
    14  C   -0.000039   0.000000  -0.000000  -0.000000   0.000000   0.000000
    15  C   -0.000667  -0.000000   0.000000   0.000000   0.000000  -0.000000
    16  C   -0.169795   0.000002  -0.000001   0.000000  -0.000000   0.000000
    17  C    0.133119  -0.000001   0.000005  -0.000000   0.000000  -0.000000
    18  C    0.195514  -0.000481   0.000062   0.000001   0.000000  -0.000000
    19  C    5.601394   0.024474  -0.003535   0.000115   0.000000   0.000000
    20  C    0.024474   5.756381   0.197107  -0.163758  -0.000504   0.000047
    21  C   -0.003535   0.197107   5.461782   0.198102   0.015675  -0.001362
    22  C    0.000115  -0.163758   0.198102   5.471164  -0.076894   0.015094
    23  H    0.000000  -0.000504   0.015675  -0.076894   0.669178  -0.012397
    24  H    0.000000   0.000047  -0.001362   0.015094  -0.012397   0.669165
    25  H   -0.000038  -0.000350   0.018340  -0.002074  -0.000316  -0.012458
    26  H   -0.040197  -0.002151   0.018949  -0.000382  -0.000001  -0.000010
    27  H   -0.001830  -0.021250   0.001270  -0.000061  -0.000000   0.000000
    28  H    0.017820  -0.000651   0.000017  -0.000000  -0.000000   0.000000
    29  H   -0.001593  -0.000000  -0.000000  -0.000000  -0.000000   0.000000
    30  H    0.000007  -0.000000  -0.000000   0.000000  -0.000000   0.000000
    31  H   -0.000000  -0.000000   0.000000  -0.000000  -0.000000  -0.000000
    32  H   -0.000071  -0.000000   0.000000  -0.000000   0.000000  -0.000000
    33  H    0.016961  -0.000000   0.000000   0.000000  -0.000000   0.000000
    34  H   -0.054504   0.000029  -0.000042  -0.000000  -0.000000   0.000000
    35  H   -0.000164   0.442706  -0.084281  -0.018962  -0.000014  -0.000001
    36  H    0.000000  -0.022456  -0.078885   0.437432  -0.012387  -0.000320
              25         26         27         28         29         30
     1  C    0.015421  -0.000010   0.000000  -0.000000   0.000000   0.000000
     2  C   -0.081317   0.000492  -0.000000   0.000000  -0.000000  -0.000000
     3  C    0.434135  -0.018568   0.000001   0.000000   0.000000   0.000000
     4  C   -0.076108  -0.083068  -0.000024  -0.000002   0.000000  -0.000000
     5  C   -0.023463   0.414224  -0.000405   0.000051   0.000000   0.000000
     6  C    0.000513  -0.051424   0.016299  -0.001672   0.000034  -0.000000
     7  C   -0.000008   0.019879  -0.091334   0.017365  -0.000076   0.000000
     8  C    0.000001  -0.000316   0.444593  -0.078084   0.001528  -0.000001
     9  C   -0.000000  -0.000013  -0.077027   0.424536   0.011532   0.000002
    10  C    0.000000  -0.001479   0.017054  -0.058412  -0.040954  -0.000262
    11  C    0.000000   0.000031  -0.000379  -0.039497  -0.048456   0.015808
    12  C    0.000000   0.000000   0.000006   0.009105   0.417378  -0.074607
    13  C   -0.000000   0.000000  -0.000001   0.001363  -0.081701   0.436625
    14  C    0.000000  -0.000000   0.000000  -0.000069   0.015897  -0.086810
    15  C   -0.000000  -0.000000  -0.000000   0.000038  -0.001922   0.015668
    16  C    0.000000  -0.000067   0.000010  -0.001007   0.019584  -0.001733
    17  C   -0.000000   0.001420  -0.000001  -0.000052  -0.000286   0.000028
    18  C    0.000003   0.012487   0.000049  -0.000286  -0.000020  -0.000001
    19  C   -0.000038  -0.040197  -0.001830   0.017820  -0.001593   0.000007
    20  C   -0.000350  -0.002151  -0.021250  -0.000651  -0.000000  -0.000000
    21  C    0.018340   0.018949   0.001270   0.000017  -0.000000  -0.000000
    22  C   -0.002074  -0.000382  -0.000061  -0.000000  -0.000000   0.000000
    23  H   -0.000316  -0.000001  -0.000000  -0.000000  -0.000000  -0.000000
    24  H   -0.012458  -0.000010   0.000000   0.000000   0.000000   0.000000
    25  H    0.676922   0.009260   0.000000  -0.000000   0.000000   0.000000
    26  H    0.009260   0.688159   0.000011   0.000000  -0.000000   0.000000
    27  H    0.000000   0.000011   0.682979  -0.014397   0.000041  -0.000000
    28  H   -0.000000   0.000000  -0.014397   0.684329  -0.000095   0.000034
    29  H    0.000000  -0.000000   0.000041  -0.000095   0.679814  -0.013582
    30  H    0.000000   0.000000  -0.000000   0.000034  -0.013582   0.671004
    31  H    0.000000  -0.000000  -0.000000  -0.000000  -0.000355  -0.012299
    32  H   -0.000000   0.000000   0.000000   0.000001   0.000028  -0.000343
    33  H    0.000000   0.000045   0.000000   0.000000   0.000011  -0.000001
    34  H   -0.000027   0.000669   0.000000   0.000010   0.000000   0.000000
    35  H    0.000012   0.000026   0.006862  -0.000031   0.000000  -0.000000
    36  H    0.000036   0.000012   0.000001  -0.000000  -0.000000  -0.000000
              31         32         33         34         35         36
     1  C   -0.000000  -0.000000   0.000000  -0.000000   0.000541  -0.081853
     2  C    0.000000   0.000000   0.000000   0.000000  -0.000021   0.015573
     3  C    0.000000  -0.000000  -0.000000  -0.000045  -0.000355  -0.002107
     4  C   -0.000000  -0.000000  -0.000001   0.001968   0.019359   0.018076
     5  C   -0.000000  -0.000000   0.000002   0.009948  -0.002679  -0.000323
     6  C    0.000000  -0.000001  -0.000370  -0.041426   0.017341  -0.000009
     7  C    0.000000   0.000000   0.000010  -0.001329  -0.085050   0.000720
     8  C   -0.000000  -0.000000  -0.000001  -0.000036  -0.021008  -0.000048
     9  C   -0.000000   0.000009   0.000046  -0.000293   0.001131   0.000001
    10  C    0.000055  -0.000155  -0.001875   0.018008  -0.000073  -0.000000
    11  C   -0.001169   0.017053   0.016441  -0.001687  -0.000001  -0.000000
    12  C    0.015153  -0.002343  -0.000329   0.000046  -0.000000  -0.000000
    13  C   -0.084811   0.016375  -0.000067  -0.000002  -0.000000   0.000000
    14  C    0.436624  -0.083479   0.001033   0.000016   0.000000  -0.000000
    15  C   -0.078791   0.441453  -0.020213  -0.000620  -0.000000   0.000000
    16  C    0.015698  -0.080754  -0.090611   0.017185   0.000000  -0.000000
    17  C   -0.000559  -0.022718   0.442902  -0.079415  -0.000000   0.000000
    18  C    0.000010   0.001101  -0.076441   0.422190   0.000011   0.000000
    19  C   -0.000000  -0.000071   0.016961  -0.054504  -0.000164   0.000000
    20  C   -0.000000  -0.000000  -0.000000   0.000029   0.442706  -0.022456
    21  C    0.000000   0.000000   0.000000  -0.000042  -0.084281  -0.078885
    22  C   -0.000000  -0.000000   0.000000  -0.000000  -0.018962   0.437432
    23  H   -0.000000   0.000000  -0.000000  -0.000000  -0.000014  -0.012387
    24  H   -0.000000  -0.000000   0.000000   0.000000  -0.000001  -0.000320
    25  H    0.000000  -0.000000   0.000000  -0.000027   0.000012   0.000036
    26  H   -0.000000   0.000000   0.000045   0.000669   0.000026   0.000012
    27  H   -0.000000   0.000000   0.000000   0.000000   0.006862   0.000001
    28  H   -0.000000   0.000001   0.000000   0.000010  -0.000031  -0.000000
    29  H   -0.000355   0.000028   0.000011   0.000000   0.000000  -0.000000
    30  H   -0.012299  -0.000343  -0.000001   0.000000  -0.000000  -0.000000
    31  H    0.672217  -0.012548  -0.000019  -0.000000  -0.000000   0.000000
    32  H   -0.012548   0.678687   0.006616  -0.000030   0.000000   0.000000
    33  H   -0.000019   0.006616   0.683370  -0.014442   0.000000   0.000000
    34  H   -0.000000  -0.000030  -0.014442   0.682293   0.000001   0.000000
    35  H   -0.000000   0.000000   0.000000   0.000001   0.687251   0.007775
    36  H    0.000000   0.000000   0.000000   0.000000   0.007775   0.678477
 Mulliken charges:
               1
     1  C   -0.041222
     2  C   -0.040310
     3  C   -0.145778
     4  C    0.220152
     5  C   -0.276887
     6  C    0.165283
     7  C    0.180626
     8  C   -0.141761
     9  C   -0.186366
    10  C    0.129145
    11  C    0.146205
    12  C   -0.170780
    13  C   -0.029801
    14  C   -0.037897
    15  C   -0.138135
    16  C    0.162193
    17  C   -0.137728
    18  C   -0.184412
    19  C    0.131498
    20  C   -0.253544
    21  C    0.201837
    22  C   -0.141432
    23  H    0.052350
    24  H    0.052166
    25  H    0.041515
    26  H    0.032022
    27  H    0.037531
    28  H    0.039588
    29  H    0.043189
    30  H    0.050464
    31  H    0.050794
    32  H    0.041121
    33  H    0.036931
    34  H    0.041535
    35  H    0.029623
    36  H    0.040286
 Sum of Mulliken charges =  -0.00000
 Mulliken charges with hydrogens summed into heavy atoms:
               1
     1  C    0.011128
     2  C    0.011856
     3  C   -0.104263
     4  C    0.220152
     5  C   -0.244864
     6  C    0.165283
     7  C    0.180626
     8  C   -0.104229
     9  C   -0.146778
    10  C    0.129145
    11  C    0.146205
    12  C   -0.127591
    13  C    0.020663
    14  C    0.012897
    15  C   -0.097014
    16  C    0.162193
    17  C   -0.100797
    18  C   -0.142877
    19  C    0.131498
    20  C   -0.223921
    21  C    0.201837
    22  C   -0.101146
 Electronic spatial extent (au):  <R**2>=           8209.6622
 Charge=             -0.0000 electrons
 Dipole moment (field-independent basis, Debye):
    X=             -0.0317    Y=             -0.0020    Z=              0.0000  Tot=              0.0318
 Quadrupole moment (field-independent basis, Debye-Ang):
   XX=           -111.9140   YY=           -109.5854   ZZ=           -134.8900
   XY=             -0.1801   XZ=              0.0000   YZ=             -0.0000
 Traceless Quadrupole moment (field-independent basis, Debye-Ang):
   XX=              6.8824   YY=              9.2111   ZZ=            -16.0935
   XY=             -0.1801   XZ=              0.0000   YZ=             -0.0000
 Octapole moment (field-independent basis, Debye-Ang**2):
  XXX=             -0.3143  YYY=              1.3311  ZZZ=              0.0000  XYY=             -1.0574
  XXY=              0.8227  XXZ=              0.0000  XZZ=              0.0501  YZZ=             -0.0287
  YYZ=              0.0000  XYZ=              0.0000
 Hexadecapole moment (field-independent basis, Debye-Ang**3):
 XXXX=          -1486.4095 YYYY=          -8825.2180 ZZZZ=           -148.9011 XXXY=            385.6257
 XXXZ=              0.0000 YYYX=            394.7255 YYYZ=              0.0000 ZZZX=              0.0000
 ZZZY=              0.0000 XXYY=          -1742.4260 XXZZ=           -321.5594 YYZZ=          -1824.6781
 XXYZ=              0.0000 YYXZ=              0.0000 ZZXY=            156.2321
 N-N= 1.526235055969D+03 E-N=-5.010165630478D+03  KE= 8.375119763757D+02
 Symmetry A'   KE= 8.139415553112D+02
 Symmetry A"   KE= 2.357042106447D+01
   2 Symmetry operations used in ECPInt.
 ECPInt:  NShTT=   12880 NPrTT=   51688 LenC2=   11490 LenP2D=   31346.
 LDataN:  DoStor=T MaxTD1= 5 Len=  102
 Calling FoFJK, ICntrl=      2127 FMM=F ISym2X=1 I1Cent= 0 IOpClX= 0 NMat=1 NMatS=1 NMatT=0.
 ***** Axes restored to original set *****
 -------------------------------------------------------------------
 Center     Atomic                   Forces (Hartrees/Bohr)
 Number     Number              X              Y              Z
 -------------------------------------------------------------------
      1        6           0.011506956   -0.025613755   -0.015240659
      2        6           0.021372107    0.023080936    0.005575731
      3        6          -0.028489807    0.001121620    0.007860089
      4        6           0.019467006    0.020296613    0.004730124
      5        6           0.017729804   -0.002189804   -0.005606898
      6        6          -0.020613679    0.022115331    0.015903501
      7        6          -0.030065312   -0.014837225    0.000611847
      8        6           0.051193430   -0.001396192   -0.013826855
      9        6          -0.024703903   -0.027144734   -0.006668241
     10        6          -0.005015999    0.007469984    0.004871448
     11        6           0.006376921   -0.009327017   -0.006111773
     12        6           0.008135504   -0.001159553   -0.002646989
     13        6          -0.019968290   -0.017108643   -0.003072477
     14        6          -0.006063001    0.019433275    0.010877611
     15        6           0.020723965   -0.005348003   -0.007890967
     16        6           0.013125698    0.004394967   -0.001265821
     17        6          -0.044812133   -0.000100811    0.011468891
     18        6           0.019630416    0.020513487    0.004792130
     19        6           0.011245193    0.000210749   -0.002789078
     20        6           0.004836654    0.005449168    0.001370107
     21        6           0.004748029   -0.023764175   -0.012616559
     22        6          -0.029681765    0.003959068    0.009527152
     23        1          -0.004412876   -0.002577141   -0.000101725
     24        1          -0.003141211    0.003183199    0.002333851
     25        1           0.003150891    0.003926722    0.001073269
     26        1           0.001260986    0.003640577    0.001421774
     27        1          -0.002570375   -0.002921633   -0.000740472
     28        1           0.005195808   -0.000056578   -0.001362515
     29        1          -0.003758638   -0.004067187   -0.000984432
     30        1           0.002414781   -0.003640615   -0.002366507
     31        1           0.004862991    0.002674210    0.000032590
     32        1          -0.002808384    0.003817214    0.002552356
     33        1           0.002486901    0.003049171    0.000823087
     34        1          -0.005545751    0.000024436    0.001437041
     35        1           0.000600689   -0.002923765   -0.001556494
     36        1           0.001586394   -0.004183896   -0.002414136
 -------------------------------------------------------------------
 Cartesian Forces:  Max     0.051193430 RMS     0.012946423

 GradGradGradGradGradGradGradGradGradGradGradGradGradGradGradGradGradGrad
 Berny optimization.
 FormGI is forming the generalized inverse of G from B-inverse, IUseBI=4.
 Internal  Forces:  Max     0.033798241 RMS     0.006832441
 Search for a local minimum.
 Step number   1 out of a maximum of  216
 All quantities printed in internal units (Hartrees-Bohrs-Radians)
 Mixed Optimization -- RFO/linear search
 Second derivative matrix not updated -- first step.
 ITU=  0
     Eigenvalues ---    0.01583   0.01715   0.01744   0.01756   0.01806
     Eigenvalues ---    0.01856   0.01879   0.01917   0.01932   0.01956
     Eigenvalues ---    0.01979   0.02007   0.02019   0.02033   0.02039
     Eigenvalues ---    0.02046   0.02048   0.02059   0.02068   0.02077
     Eigenvalues ---    0.02082   0.02083   0.02097   0.02119   0.02125
     Eigenvalues ---    0.02166   0.02169   0.02185   0.02186   0.02189
     Eigenvalues ---    0.02190   0.02204   0.02249   0.16000   0.16000
     Eigenvalues ---    0.16000   0.16000   0.16000   0.16000   0.16000
     Eigenvalues ---    0.16000   0.16000   0.16000   0.16000   0.16000
     Eigenvalues ---    0.16000   0.16000   0.22000   0.22000   0.22368
     Eigenvalues ---    0.22486   0.22581   0.22724   0.23252   0.23898
     Eigenvalues ---    0.24341   0.24483   0.24583   0.24680   0.25000
     Eigenvalues ---    0.25000   0.25000   0.34932   0.35012   0.35014
     Eigenvalues ---    0.35025   0.35079   0.35079   0.35171   0.35185
     Eigenvalues ---    0.35188   0.35230   0.35242   0.35278   0.35290
     Eigenvalues ---    0.35295   0.36698   0.36812   0.37431   0.38602
     Eigenvalues ---    0.39735   0.39938   0.40259   0.41306   0.41578
     Eigenvalues ---    0.42796   0.42838   0.43612   0.43639   0.44380
     Eigenvalues ---    0.44515   0.45075   0.45105   0.45284   0.45379
     Eigenvalues ---    0.45665   0.45868   0.46042   0.46588   0.46619
     Eigenvalues ---    0.46758   0.47523
 RFO step:  Lambda=-2.28803902D-02 EMin= 1.58318847D-02
 Linear search not attempted -- first point.
 Iteration  1 RMS(Cart)=  0.03795720 RMS(Int)=  0.00031196
 Iteration  2 RMS(Cart)=  0.00049180 RMS(Int)=  0.00003767
 Iteration  3 RMS(Cart)=  0.00000011 RMS(Int)=  0.00003767
 ClnCor:  largest displacement from symmetrization is 3.11D-08 for atom    24.
 Variable       Old X    -DE/DX   Delta X   Delta X   Delta X     New X
                                 (Linear)    (Quad)   (Total)
    R1        2.62853   0.02765   0.00000   0.05365   0.05368   2.68221
    R2        2.63675  -0.01265   0.00000  -0.02702  -0.02700   2.60976
    R3        2.05371   0.00506   0.00000   0.01350   0.01350   2.06721
    R4        2.63770  -0.01276   0.00000  -0.02751  -0.02750   2.61019
    R5        2.05376   0.00497   0.00000   0.01328   0.01328   2.06704
    R6        2.65678   0.01493   0.00000   0.03286   0.03283   2.68962
    R7        2.05546   0.00449   0.00000   0.01200   0.01200   2.06747
    R8        2.66231   0.00025   0.00000   0.00033   0.00021   2.66252
    R9        2.65448   0.03215   0.00000   0.07177   0.07166   2.72614
   R10        2.68711  -0.01779   0.00000  -0.04144  -0.04148   2.64563
   R11        2.05304   0.00405   0.00000   0.01078   0.01078   2.06382
   R12        2.66913   0.02630   0.00000   0.05817   0.05826   2.72739
   R13        2.73561   0.00278   0.00000   0.00704   0.00703   2.74264
   R14        2.62871   0.03380   0.00000   0.07009   0.07010   2.69880
   R15        2.65795  -0.00241   0.00000  -0.00495  -0.00483   2.65312
   R16        2.63402  -0.02239   0.00000  -0.04595  -0.04595   2.58807
   R17        2.05655   0.00341   0.00000   0.00915   0.00915   2.06570
   R18        2.66411   0.01892   0.00000   0.03884   0.03884   2.70295
   R19        2.05226   0.00413   0.00000   0.01100   0.01100   2.06326
   R20        2.73374  -0.00175   0.00000  -0.00445  -0.00446   2.72928
   R21        2.69396   0.00136   0.00000  -0.00078  -0.00078   2.69317
[...]
 .00049251,-0.00028101,0.00015002,-0.00050785,0.00177264,-0.00221094,-0
 .02169251,0.00509599,0.03382450,-0.00000714,-0.00000122,0.00000105,-0.
 00000050,-0.00000094,-0.00000066,-0.00000313,-0.00000787,-0.00000317,0
 .00000065,0.00001548,0.00000709,-0.00001918,-0.00003600,-0.00001418,0.
 00001487,0.00012012,0.00006529,0.00001269,-0.00000040,-0.00000462,0.00
 001508,-0.00010757,-0.00005417,-0.00040708,0.00000468,0.00014740,0.000
 24593,-0.00130467,-0.00062794,-0.00446415,-0.00104866,0.00197445,-0.00
 087433,0.00027685,0.00023007,-0.00271111,0.00114754,0.00323490,0.00850
 437,0.02214030,0.00960406,-0.06650495,-0.04732640,-0.01526911,-0.00163
 001,-0.02605215,-0.01111702,0.00096385,-0.00129620,-0.00175541,0.00016
 123,0.00035742,0.00012272,0.00013653,-0.00016171,-0.00015237,0.0000028
 8,0.00001061,0.00000474,-0.00000694,-0.00000216,0.00000032,0.00000314,
 0.00000600,0.00000189,-0.00000014,0.00000033,0.00000038,-0.00000112,-0
 .00000004,0.00000050,-0.00000080,0.00000220,0.00000176,-0.00000713,0.0
 0000981,0.00000767,-0.00004297,-0.00001366,-0.00000624,0.00001892,-0.0
 0000604,-0.00000656,0.00001926,0.00007605,-0.00025034,0.00024561,0.001
 01052,0.00047752,0.00082805,0.00001656,-0.00145898,0.06586924,-0.00001
 582,0.00000218,0.00000549,-0.00001001,-0.00000568,0.00000048,-0.000000
 97,-0.00002066,-0.00000930,-0.00000226,0.00000884,0.00000513,-0.000015
 09,-0.00004409,-0.00001382,-0.00001396,0.00007452,0.00001785,-0.000017
 64,0.00000839,0.00001073,0.00003887,-0.00005790,-0.00004017,-0.0002385
 8,0.00003174,0.00000092,0.00041903,-0.00039585,-0.00041122,-0.00242810
 ,0.00177911,-0.00100441,0.00010958,0.00058857,0.00049183,0.00252331,0.
 00156637,-0.00360639,-0.00562382,-0.01036169,-0.00571094,-0.04743775,-
 0.27981606,-0.10395982,-0.00050432,-0.00784086,-0.00541715,0.00234991,
 -0.00012890,0.00098758,-0.00034233,0.00010840,0.00015350,0.00012122,0.
 00016752,0.00012333,0.00000702,0.00002109,0.00000758,-0.00001407,-0.00
 000667,0.00000122,0.00000838,0.00001748,0.00000657,-0.00000467,-0.0000
 0067,0.00000052,-0.00000552,0.00000186,0.00000187,0.00000199,0.0000051
 4,0.00000102,-0.00000117,0.00000374,-0.00000003,-0.00002160,-0.0000207
 7,0.00001562,0.00001891,0.00001176,-0.00000147,0.00008319,-0.00028414,
 0.00036827,-0.00030826,-0.00054447,-0.00028646,0.00068191,-0.00010241,
 0.00211565,0.05134064,0.29470580,-0.00000595,0.00000173,0.00000158,-0.
 00000501,-0.00000185,-0.00000092,0.00000015,-0.00000752,-0.00000440,-0
 .00000142,0.00000057,-0.00000001,-0.00000415,-0.00000845,-0.00001016,0
 .00000099,-0.00001661,0.00003656,-0.00001289,0.00000630,0.00000180,0.0
 0001605,-0.00000253,-0.00000031,0.00003074,-0.00006160,0.00012025,0.00
 019867,0.00003179,0.00020126,0.00131293,-0.00135894,0.00418575,0.00014
 985,0.00044883,-0.00031902,0.00389466,-0.00325280,0.00517343,-0.003710
 40,-0.01284664,-0.00064596,-0.01532251,-0.10398844,-0.08353937,0.00113
 460,0.00114894,0.00398496,-0.00000690,0.00192468,-0.00252291,-0.000212
 86,-0.00002635,0.00001386,-0.00001670,0.00019604,-0.00005631,0.0000030
 2,0.00000666,0.00000394,-0.00000539,-0.00000185,-0.00000116,0.00000303
 ,0.00000718,0.00000196,-0.00000201,-0.00000076,0.00000089,-0.00000212,
 0.00000046,0.00000168,0.00000166,0.00000097,0.00000198,0.00000241,-0.0
 0000285,0.00000243,-0.00001005,0.00001358,-0.00003266,0.00000541,0.000
 00495,0.00000566,-0.00024691,0.00037011,-0.00085572,-0.00015490,-0.000
 62540,-0.00004202,-0.00113991,0.00228665,-0.00349001,0.01425099,0.1158
 9373,0.07743676,-0.00000929,-0.00002166,-0.00000821,0.00000208,0.00002
 814,0.00001250,-0.00004200,-0.00003740,-0.00001025,0.00003625,0.000074
 13,0.00001991,-0.00003590,-0.00006507,0.00002727,0.00052892,-0.0011499
 5,-0.00063812,-0.00038799,-0.00001105,-0.00003815,-0.00007665,0.000017
 46,0.00006144,0.00011242,0.00014143,-0.00019631,-0.00073136,0.00016624
 ,0.00013549,-0.00311376,0.00098895,0.00238173,0.00050204,0.00098406,0.
 00036514,0.00015398,0.00016735,0.00000949,0.00013110,-0.00034036,-0.00
 021521,0.00094882,0.00185350,-0.00005389,0.00747880,0.02009000,0.00868
 429,-0.06812907,-0.05243236,-0.01730623,-0.00216769,-0.02775514,-0.011
 54828,-0.00434691,-0.00130190,0.00272246,-0.00001732,-0.00011884,-0.00
 005566,0.00004440,-0.00003577,-0.00001484,-0.00001567,0.00002318,0.000
 01419,-0.00000472,-0.00000027,0.00000166,-0.00000807,0.00000084,0.0000
 0258,0.00000125,0.00001046,0.00000603,0.00000848,0.00003355,0.00001627
 ,0.00001180,-0.00002407,0.00001940,-0.00000661,-0.00005741,-0.00001704
 ,-0.00024650,0.00015852,0.00017069,-0.00001745,-0.00004800,-0.00000848
 ,0.00002887,-0.00002602,0.00001520,-0.00036917,-0.00062038,-0.00015888
 ,0.06890919,-0.00001950,-0.00000155,0.00000466,-0.00001105,-0.00000144
 ,0.00000300,-0.00000732,-0.00003413,-0.00000869,0.00001416,0.00001308,
 0.00001443,-0.00002964,0.00000732,-0.00008077,0.00020811,-0.00037098,-
 0.00032335,-0.00015485,-0.00006875,0.00025418,-0.00002802,0.00003197,-
 0.00003972,0.00008105,-0.00014022,0.00035087,0.00035961,0.00041300,0.0
 0035231,0.00258167,0.00098057,-0.00225920,-0.00073755,-0.00063583,-0.0
 0015690,0.00007492,0.00020963,0.00013947,0.00033322,0.00005043,-0.0000
 2733,-0.00166367,0.00011332,0.00178598,-0.00547741,-0.01146840,-0.0059
 0589,-0.05269661,-0.27938496,-0.10239041,-0.00030120,-0.00632972,-0.00
 520599,-0.00258226,0.00275739,-0.00217419,0.00002001,-0.00004506,-0.00
 002093,-0.00001771,0.00000178,-0.00002019,0.00000825,0.00001981,0.0000
 0915,-0.00000570,-0.00000031,0.00000024,-0.00000774,0.00000175,0.00000
 262,0.00000201,0.00000814,0.00000090,-0.00001102,-0.00000727,-0.000005
 06,-0.00002479,0.00000579,-0.00005424,0.00001275,0.00000790,-0.0000159
 0,0.00018952,-0.00009788,-0.00015409,0.00003439,0.00004023,-0.00000829
 ,0.00003427,0.00000950,-0.00006974,0.00084472,0.00051466,-0.00005191,0
 .05854247,0.29360654,-0.00000717,0.00000522,0.00000353,-0.00000629,-0.
 00000707,-0.00000356,0.00000418,-0.00000096,-0.00001361,-0.00000885,-0
 .00000098,-0.00002280,0.00004427,-0.00007166,0.00014589,0.00001315,0.0
 0002569,0.00020069,-0.00010711,0.00021723,-0.00038410,0.00003963,-0.00
 005141,0.00009498,-0.00022527,0.00033535,-0.00069659,0.00022822,0.0004
 0201,-0.00038026,0.00314553,-0.00184985,0.00261243,-0.00046046,-0.0005
 9937,-0.00008247,-0.00003484,0.00011572,-0.00005691,0.00010781,0.00014
 579,-0.00002897,-0.00174057,0.00088203,-0.00184897,-0.00357673,-0.0124
 7701,-0.00128170,-0.01743296,-0.10245833,-0.08228631,0.00161743,0.0018
 4999,0.00515902,0.00210846,-0.00250325,0.00693271,0.00001093,0.0000147
 5,-0.00000786,-0.00000619,-0.00001555,0.00004751,0.00000703,0.00000531
 ,-0.00000296,-0.00000094,-0.00000116,0.00000194,-0.00000153,0.00000042
 ,0.00000102,0.00000198,-0.00000127,0.00000407,-0.00000511,-0.00001651,
 0.00000258,0.00001905,-0.00005443,0.00010119,0.00001661,0.00000213,0.0
 0003098,0.00018556,-0.00014612,0.00000410,0.00003103,0.00001288,0.0000
 3730,0.00004411,-0.00005425,0.00009921,0.00054371,0.00032464,0.0001861
 3,0.01689001,0.11357785,0.07551814,0.00000652,0.00002375,0.00001129,-0
 .00001940,-0.00002433,-0.00001284,0.00004751,-0.00000321,-0.00001729,-
 0.00005937,-0.00005071,-0.00007698,-0.00263999,-0.00260557,-0.00053898
 ,-0.00123249,0.00105332,0.00019737,0.00012591,0.00002341,-0.00002376,0
 .00002889,0.00001601,-0.00002874,0.00040022,-0.00017267,-0.00012094,0.
 00032846,-0.00211039,0.00003606,-0.00010014,-0.00044614,-0.00028861,0.
 00017103,0.00012426,-0.00017008,-0.00005348,-0.00019476,-0.00005017,-0
 .00047473,-0.00005658,-0.00008560,-0.00022563,0.00107856,0.00060326,-0
 .00314747,-0.00444053,0.00102808,-0.01765863,0.01804813,0.01458075,-0.
 19565577,0.10810540,0.09222394,0.00880958,-0.00317662,-0.00294335,0.00
 001839,0.00007806,0.00003632,-0.00006966,0.00001031,0.00002791,0.00002
 501,-0.00002521,-0.00001190,0.00000705,0.00000293,0.00000041,0.0000118
 6,-0.00000317,-0.00000456,-0.00000620,0.00000443,0.00001162,-0.0030822
 6,-0.00210256,0.00013253,-0.00000504,0.00001163,0.00001411,-0.00001786
 ,-0.00010254,-0.00006448,-0.00001659,0.00002705,0.00002602,-0.00000687
 ,0.00000462,0.00002476,-0.00009909,0.00007325,0.00005762,0.00000501,-0
 .00007792,0.00001415,0.00087152,0.00044903,-0.00143606,0.21369674,-0.0
 0003993,0.00000716,0.00001076,0.00000116,-0.00004970,-0.00001263,-0.00
 002398,-0.00002682,-0.00000009,-0.00029914,0.00063243,0.00050689,0.000
 08759,-0.00118546,-0.00065077,0.00147716,0.00037691,0.00096638,-0.0000
 1682,-0.00016233,-0.00006861,0.00007261,0.00000658,0.00003859,0.001291
 34,-0.00017086,-0.00053460,-0.00339536,-0.00315574,-0.00275390,-0.0006
 7009,-0.00022778,0.00025032,0.00023629,-0.00006123,0.00025643,-0.00007
 191,-0.00008899,-0.00007921,-0.00007549,-0.00006482,0.00032506,-0.0000
 6989,0.00038835,0.00015188,-0.00324140,0.00118863,-0.00297919,-0.01024
 294,0.00998972,0.00483485,0.10858565,-0.14112364,-0.07710378,0.0210217
 9,-0.01011986,-0.01183105,0.00005903,0.00017089,0.00006003,0.00013324,
 0.00007115,-0.00000957,0.00000853,0.00009240,0.00002976,0.00000910,0.0
 0000707,-0.00000047,0.00001491,-0.00000025,-0.00000396,-0.00002433,0.0
 0002436,0.00000318,-0.00183168,0.00108189,0.00033904,-0.00006020,0.000
 00762,0.00000561,-0.00010488,-0.00039328,-0.00012452,-0.00003235,0.000
 01862,0.00000085,0.00000654,0.00001791,-0.00003187,-0.00003866,0.00002
 457,0.00002728,-0.00001506,0.00002215,-0.00008403,0.00078787,-0.000179
 07,0.00237502,-0.11356382,0.14285294,-0.00001925,-0.00000561,0.0000083
 8,-0.00000062,-0.00000608,-0.00002674,-0.00002725,-0.00000543,-0.00000
 937,-0.00019611,0.00044304,-0.00000139,0.00075254,0.00004140,-0.000048
 93,0.00040063,0.00107532,-0.00201721,-0.00004306,-0.00007895,-0.000037
 03,-0.00000160,0.00005314,-0.00008692,0.00058114,-0.00015834,0.0000265
 7,-0.00058015,-0.00308415,0.00307663,-0.00039601,0.00019276,-0.0001964
 1,-0.00011636,0.00028523,-0.00055591,0.00000874,-0.00004763,0.00008963
 ,-0.00009467,0.00032020,-0.00052432,0.00005252,-0.00014329,0.00002690,
 0.00160313,-0.00267100,0.00744529,0.00101358,-0.00243628,0.00396852,0.
 09245424,-0.07698035,-0.09921533,0.00866115,-0.00561178,-0.00163256,0.
 00002720,0.00005514,0.00003353,0.00008686,0.00002202,0.00000794,0.0000
 0429,0.00003844,0.00004310,0.00000337,0.00000112,0.00000284,0.00000411
 ,0.00000068,-0.00000071,-0.00000217,-0.00000421,0.00002930,0.00026243,
 0.00040866,0.00148509,-0.00002033,-0.00001285,0.00002724,-0.00006560,-
 0.00012512,-0.00012056,-0.00000247,-0.00001442,0.00002790,0.00002568,-
 0.00003137,0.00005921,0.00000395,-0.00000148,-0.00001331,0.00004429,-0
 .00006787,0.00016151,-0.00127357,0.00246211,-0.00404582,-0.10316091,0.
 08608391,0.09200413,0.00013450,-0.00037216,-0.00023209,0.00017148,0.00
 020282,0.00000089,0.00046019,0.00096394,0.00037429,-0.00306321,0.00087
 346,0.00265580,-0.00078226,0.00022834,0.00020102,-0.00428836,-0.000970
 94,0.00220032,-0.00162734,-0.02628519,-0.01105716,0.00081064,-0.001354
 42,-0.00198786,0.00014613,0.00038470,0.00014354,0.00014002,-0.00017701
 ,-0.00016578,0.00002450,0.00013092,0.00006892,-0.00002250,-0.00003705,
 -0.00001382,-0.00000164,0.00000928,0.00000408,-0.00001469,-0.00000643,
 0.00000009,0.00000166,0.00001873,0.00000812,0.00001090,-0.00001199,-0.
 00000808,0.00000492,-0.00009852,-0.00004699,-0.00039544,0.00000594,0.0
 0015471,0.00024946,-0.00128784,-0.00062271,-0.06565431,-0.04601532,-0.
 01466796,0.00759393,0.02085827,0.00918303,0.00098128,0.00180856,-0.000
 35037,0.00002988,-0.00003767,0.00003527,-0.00001921,-0.00004906,-0.000
 00681,-0.00023528,0.00015925,0.00019263,-0.00002077,0.00006701,-0.0002
 3753,-0.00039778,0.00083280,0.00055068,0.00000532,-0.00002310,0.000064
 13,-0.00000487,0.00001123,0.00000789,-0.00000480,-0.00000036,0.0000017
 4,-0.00000143,0.00000100,0.00000116,0.00000233,0.00000049,-0.00000035,
 -0.00004486,-0.00001322,-0.00000899,0.00001940,-0.00000031,-0.00000260
 ,0.06611241,0.00029286,0.00000951,-0.00003515,0.00009265,0.00015930,0.
 00015017,-0.00075917,-0.00058978,-0.00014426,0.00251435,0.00142115,-0.
 00266958,0.00019524,0.00049262,0.00039043,-0.00250248,0.00206108,-0.00
 128629,-0.00090721,-0.00800879,-0.00571564,0.00253567,-0.00026615,0.00
 132913,-0.00032077,0.00011543,0.00014411,0.00011914,0.00012477,0.00011
 300,-0.00001900,0.00006300,0.00001189,-0.00001215,-0.00003524,-0.00001
 036,-0.00000930,-0.00001043,-0.00000113,-0.00002298,0.00000053,0.00000
 728,0.00000881,0.00002292,0.00000954,-0.00002006,0.00001012,0.00000913
 ,0.00003287,-0.00004273,-0.00003177,-0.00023964,0.00003512,-0.00001529
 ,0.00038961,-0.00044383,-0.00042305,-0.04647421,-0.27792872,-0.1036588
 5,-0.00471777,-0.01111254,-0.00622885,-0.00144937,-0.00000570,0.002171
 24,0.00002831,0.00002501,-0.00010911,0.00003437,0.00003899,-0.00001212
 ,0.00015607,-0.00009419,-0.00018938,0.00008268,-0.00031931,0.00033875,
 -0.00060028,0.00052299,0.00031352,-0.00009176,0.00003398,-0.00010300,-
 0.00000204,0.00000540,0.00000078,-0.00000799,0.00000223,0.00000185,-0.
 00000510,-0.00000063,0.00000043,0.00000112,-0.00000463,-0.00000253,-0.
 00001917,-0.00002310,0.00002031,0.00001878,0.00001318,-0.00000323,0.05
 084538,0.29330026,0.00008682,0.00013576,-0.00003134,-0.00005194,0.0001
 2185,-0.00013171,-0.00045204,-0.00058712,-0.00004748,0.00344270,-0.002
 24785,0.00367761,0.00018515,0.00038192,-0.00029060,0.00146587,-0.00167
 991,0.00490215,0.00111301,0.00080680,0.00449686,-0.00012235,0.00232893
 ,-0.00324839,-0.00019477,-0.00003720,0.00001904,-0.00002376,0.00018912
 ,-0.00007792,-0.00000297,-0.00002664,0.00003638,-0.00000188,-0.0000039
 6,-0.00000854,-0.00000483,-0.00000590,-0.00000468,-0.00000785,0.000003
 03,0.00000113,0.00000336,0.00000699,0.00000078,-0.00001195,0.00000706,
 0.00000829,0.00001601,0.00000200,0.00000275,0.00003694,-0.00007841,0.0
 0014834,0.00018172,0.00000808,0.00018670,-0.01488802,-0.10377679,-0.08
 280622,-0.00308212,-0.01280219,-0.00094257,-0.00191273,0.00133391,-0.0
 0262525,0.00006690,-0.00009216,0.00017598,0.00003320,0.00000933,0.0000
 4177,0.00019111,-0.00019019,0.00007674,-0.00023001,0.00034278,-0.00084
 651,-0.00013656,-0.00005480,0.00019976,0.00003121,-0.00012065,0.000232
 07,0.00000152,-0.00000263,0.00000322,-0.00000191,-0.00000011,0.0000031
 0,-0.00000177,-0.00000114,0.00000111,-0.00000005,-0.00000236,-0.000001
 08,-0.00001185,0.00001878,-0.00004312,0.00000655,0.00000168,0.00000897
 ,0.01375191,0.11571843,0.07670639,0.00847424,0.02202949,0.00962625,-0.
 00261044,0.00095047,0.00325385,-0.00077161,0.00027381,0.00019064,-0.00
 460972,-0.00082679,0.00198173,0.00023671,-0.00133322,-0.00065955,0.000
 17640,-0.00005758,-0.00011988,0.00014307,0.00040802,0.00011680,-0.0000
 1005,-0.00003355,0.00003114,0.00001867,-0.00001484,-0.00001361,-0.0000
 4461,-0.00004968,-0.00001130,0.00001057,0.00002110,0.00000786,-0.00000
 693,-0.00000703,-0.00000169,0.00000260,0.00000136,-0.00000034,-0.00000
 628,-0.00000451,-0.00000057,-0.00000116,0.00000615,0.00000302,-0.00000
 919,-0.00000995,-0.00000485,-0.00001286,0.00002904,0.00001736,0.000004
 13,-0.00002606,-0.00001519,0.00000545,0.00007499,0.00004625,0.00128930
 ,-0.00103049,-0.00154478,-0.00159687,-0.02616210,-0.01118816,-0.067207
 88,-0.04988809,-0.01626464,0.00081861,0.00014410,-0.00151683,0.0002393
 1,0.00099386,0.00046724,0.00003383,0.00008737,-0.00026562,-0.00037110,
 -0.00018944,0.00006051,-0.00002489,0.00002084,0.00001742,-0.00000073,0
 .00000410,-0.00000327,-0.00000206,0.00000282,0.00000229,-0.00000105,0.
 00000005,0.00000046,-0.00000011,0.00000035,0.00000039,0.00000022,-0.00
 000020,0.00000002,0.00000108,-0.00000092,0.00000036,-0.00000243,0.0000
 2544,0.00001286,-0.00032023,0.00083255,0.00052538,0.06615600,-0.005736
 67,-0.01053030,-0.00588891,0.00239406,0.00175101,-0.00374461,0.0001132
 4,0.00053663,0.00048757,-0.00234529,0.00176346,-0.00077846,0.00041271,
 -0.00046319,-0.00040404,0.00004948,0.00016061,0.00015186,-0.00032012,0
 .00010326,0.00021034,0.00003449,-0.00006572,-0.00012369,-0.00006722,-0
 .00004333,-0.00000034,-0.00002683,0.00002983,0.00001923,0.00000112,0.0
 0000459,0.00000105,-0.00000533,-0.00001684,-0.00000652,-0.00000545,-0.
 00000802,-0.00000184,-0.00001518,0.00000065,0.00000426,0.00000476,0.00
 001496,0.00000637,-0.00001635,-0.00000545,0.00000613,0.00000793,0.0000
 1081,0.00000290,-0.00001559,-0.00001877,-0.00000195,0.00005744,0.00008
 862,0.00000592,0.00199616,0.00006223,0.00085882,-0.00042821,-0.0074432
 4,-0.00522757,-0.04946349,-0.27973861,-0.10349960,0.00073033,-0.000166
 80,0.00229891,-0.00030009,-0.00055013,-0.00028396,0.00007622,-0.000300
 50,0.00039388,-0.00017573,-0.00003318,-0.00007520,-0.00000750,0.000023
 11,0.00001109,-0.00001003,-0.00000292,0.00001129,0.00000354,0.00000259
 ,-0.00000042,-0.00000533,0.00000195,0.00000199,-0.00000450,-0.00000105
 ,0.00000029,-0.00000018,-0.00000386,-0.00000212,-0.00000329,-0.0000041
 5,-0.00000315,0.00000381,0.00001528,0.00000628,-0.00066151,0.00042817,
 0.00029358,0.05372860,0.29439828,-0.00368918,-0.01302513,-0.00047402,0
 .00394614,-0.00337359,0.00564440,0.00011363,0.00044630,-0.00035595,0.0
 0125353,-0.00116873,0.00376102,0.00017773,0.00004469,0.00013390,-0.000
 06853,0.00017938,-0.00007895,-0.00023238,0.00002320,-0.00009294,0.0000
 6377,-0.00010620,0.00010640,-0.00003873,-0.00001380,-0.00000326,-0.000
 00035,0.00002510,0.00001624,-0.00000172,-0.00000409,0.00000028,-0.0000
 0087,-0.00000608,-0.00000308,-0.00000360,-0.00000359,-0.00000205,-0.00
 000569,0.00000152,0.00000210,0.00000236,0.00000601,0.00000141,-0.00000
 791,0.00000449,-0.00000529,0.00000724,-0.00000253,-0.00000255,-0.00001
 017,0.00000074,-0.00000338,0.00003784,0.00000140,0.00003645,-0.0000933
 2,0.00163670,-0.00198957,0.00115269,0.00138634,0.00405567,-0.01606102,
 -0.10339048,-0.08285937,-0.00123569,0.00244958,-0.00385974,-0.00015329
 ,-0.00061652,-0.00005343,-0.00027097,0.00039101,-0.00090553,0.00006709
 ,-0.00007168,0.00016620,0.00000383,0.00000381,0.00000485,-0.00001004,0
 .00000766,-0.00001483,0.00000263,-0.00000024,0.00000079,-0.00000212,0.
 00000061,0.00000149,-0.00000193,-0.00000096,0.00000080,0.00000003,-0.0
 0000212,-0.00000036,-0.00000078,-0.00000376,0.00000258,0.00000249,0.00
 000072,-0.00000015,-0.00019111,-0.00009041,0.00017627,0.01524842,0.115
 27065,0.07659358\\-0.00002459,0.00000637,0.00000937,-0.00003898,0.0000
 0116,0.00001058,-0.00001035,-0.00008045,-0.00003592,0.00004007,0.00022
 981,0.00009991,-0.00004549,-0.00006631,-0.00002010,0.00001503,0.000058
 43,0.00002416,-0.00012118,-0.00021542,-0.00007216,0.00009793,0.0000557
 4,0.00000156,-0.00005246,-0.00002755,0.00000027,0.00000991,0.00002324,
 0.00000860,-0.00003961,-0.00002176,-0.00000025,0.00001223,-0.00000152,
 -0.00000387,0.00003187,-0.00000946,-0.00001273,0.00000645,0.00000173,-
 0.00000083,-0.00002320,-0.00009207,-0.00003819,0.00007073,0.00014811,0
 .00005285,-0.00004863,-0.00005003,-0.00001149,0.00003031,0.00001349,-0
 .00000132,0.00004906,0.00000164,-0.00001182,0.00003387,0.00018797,0.00
 008144,-0.00002624,-0.00023890,-0.00010782,0.00002324,0.00007243,0.000
 02876,0.00001581,-0.00001282,-0.00001021,0.00001990,0.00000380,-0.0000
 0329,0.00002171,0.00001316,0.00000073,-0.00001474,0.00001009,0.0000086
 3,-0.00002157,-0.00001013,0.00000068,-0.00000111,0.00000450,0.00000244
 ,-0.00001185,0.00000444,0.00000517,-0.00000569,0.00000926,0.00000590,-
 0.00001627,0.00000570,0.00000692,-0.00001855,0.00001754,0.00001318,0.0
 0002421,0.00001220,-0.00000037,0.00000868,-0.00000432,-0.00000430,-0.0
 0000411,-0.00003424,-0.00001536,0.00001357,-0.00001582,-0.00001108\\\@
 The archive entry for this job was punched.


 I DO NOT KNOW WHAT I MAY APPEAR TO THE WORLD; BUT TO MYSELF
 I SEEM TO HAVE BEEN ONLY LIKE A BOY PLAYING ON THE SEASHORE,
 AND DIVERTING MYSELF IN NOW AND THEN FINDING A SMOOTHER PEBBLE
 OR A PRETTIER SHELL THAN ORDINARY, WHILST THE GREAT OCEAN OF
 TRUTH LAY ALL UNDISCOVERED BEFORE ME.
                                          -- NEWTON (1642-1726)
 Job cpu time:       0 days  0 hours 52 minutes  2.1 seconds.
 Elapsed time:       0 days  0 hours  6 minutes 30.3 seconds.
 File lengths (MBytes):  RWF=    488 Int=      0 D2E=      0 Chk=     11 Scr=      1
 Normal termination of Gaussian 16 at Wed Oct  9 00:02:24 2024.
