 Entering Gaussian System, Link 0=g16
 Initial command:
 /opt/g16/l1.exe "/tmp/Gau-1395184.inp" -scrdir="/tmp/"
 Entering Link 1 = /opt/g16/l1.exe PID=   1395186.
  
 Copyright (c) 1988-2019, Gaussian, Inc.  All Rights Reserved.
  
 This is part of the Gaussian(R) 16 program.  It is based on
 the Gaussian(R) 09 system (copyright 2009, Gaussian, Inc.),
 the Gaussian(R) 03 system (copyright 2003, Gaussian, Inc.),
 the Gaussian(R) 98 system (copyright 1998, Gaussian, Inc.),
 the Gaussian(R) 94 system (copyright 1995, Gaussian, Inc.),
 the Gaussian 92(TM) system (copyright 1992, Gaussian, Inc.),
 the Gaussian 90(TM) system (copyright 1990, Gaussian, Inc.),
 the Gaussian 88(TM) system (copyright 1988, Gaussian, Inc.),
 the Gaussian 86(TM) system (copyright 1986, Carnegie Mellon
 University), and the Gaussian 82(TM) system (copyright 1983,
 Carnegie Mellon University). Gaussian is a federally registered
 trademark of Gaussian, Inc.
  
 This software contains proprietary and confidential information,
 including trade secrets, belonging to Gaussian, Inc.
  
 This software is provided under written license and may be
 used, copied, transmitted, or stored only in accord with that
 written license.
  
 The following legend is applicable only to US Government
 contracts under FAR:
  
                    RESTRICTED RIGHTS LEGEND
  
 Use, reproduction and disclosure by the US Government is
 subject to restrictions as set forth in subparagraphs (a)
 and (c) of the Commercial Computer Software - Restricted
 Rights clause in FAR 52.227-19.
  
 Gaussian, Inc.
 340 Quinnipiac St., Bldg. 40, Wallingford CT 06492
  
  
 ---------------------------------------------------------------
 Warning -- This program may not be used in any manner that
 competes with the business of Gaussian, Inc. or will provide
 assistance to any competitor of Gaussian, Inc.  The licensee
 of this program is prohibited from giving any competitor of
 Gaussian, Inc. access to this program.  By using this program,
 the user acknowledges that Gaussian, Inc. is engaged in the
 business of creating and licensing software in the field of
 computational chemistry and represents and warrants to the
 licensee that it is not a competitor of Gaussian, Inc. and that
 it will not use this program in any manner prohibited above.
 ---------------------------------------------------------------
  

 Cite this work as:
 Gaussian 16, Revision C.01,
 M. J. Frisch, G. W. Trucks, H. B. Schlegel, G. E. Scuseria, 
 M. A. Robb, J. R. Cheeseman, G. Scalmani, V. Barone, 
 G. A. Petersson, H. Nakatsuji, X. Li, M. Caricato, A. V. Marenich, 
 J. Bloino, B. G. Janesko, R. Gomperts, B. Mennucci, H. P. Hratchian, 
 J. V. Ortiz, A. F. Izmaylov, J. L. Sonnenberg, D. Williams-Young, 
 F. Ding, F. Lipparini, F. Egidi, J. Goings, B. Peng, A. Petrone, 
 T. Henderson, D. Ranasinghe, V. G. Zakrzewski, J. Gao, N. Rega, 
 G. Zheng, W. Liang, M. Hada, M. Ehara, K. Toyota, R. Fukuda, 
 J. Hasegawa, M. Ishida, T. Nakajima, Y. Honda, O. Kitao, H. Nakai, 
 T. Vreven, K. Throssell, J. A. Montgomery, Jr., J. E. Peralta, 
 F. Ogliaro, M. J. Bearpark, J. J. Heyd, E. N. Brothers, K. N. Kudin, 
 V. N. Staroverov, T. A. Keith, R. Kobayashi, J. Normand, 
 K. Raghavachari, A. P. Rendell, J. C. Burant, S. S. Iyengar, 
 J. Tomasi, M. Cossi, J. M. Millam, M. Klene, C. Adamo, R. Cammi, 
 J. W. Ochterski, R. L. Martin, K. Morokuma, O. Farkas, 
 J. B. Foresman, and D. J. Fox, Gaussian, Inc., Wallingford CT, 2019.
 
 ******************************************
 Gaussian 16:  ES64L-G16RevC.01  3-Jul-2019
                 9-Oct-2024 
 ******************************************
 %nprocshared=8
 Will use up to    8 processors via shared memory.
 %mem=8800MB
 ----------------------------------------------------------------------
 #N opt freq B3LYP/def2SVPP symm=veryloose em=gd3bj scale=0.961 press=0
 .987
 ----------------------------------------------------------------------
 1/18=20,19=15,26=3,38=1,113=-987000,114=961000/1,3;
 2/9=110,12=2,17=2,18=2,40=1/2;
 3/5=43,7=202,11=2,25=1,30=1,71=1,74=-5,124=41/1,2,3;
 4//1;
 5/5=2,38=5/2;
 6/7=2,8=2,9=2,10=2,28=1/1;
 7//1,2,3,16;
 1/18=20,19=15,26=3/3(2);
 2/9=110/2;
 99//99;
 2/9=110/2;
 3/5=43,7=202,11=2,25=1,30=1,71=1,74=-5,124=41/1,2,3;
 4/5=5,16=3,69=1/1;
 5/5=2,38=5/2;
 7//1,2,3,16;
 1/18=20,19=15,26=3/3(-5);
 2/9=110/2;
 6/7=2,8=2,9=2,10=2,19=2,28=1/1;
 99/9=1/99;
 ------------------------------------
 c1ccc2c(c1)ccc1c2ccc2ccc3ccccc3c21_2
 ------------------------------------
 Symbolic Z-matrix:
 Charge =  0 Multiplicity = 1
 C                    -5.2559   -1.4116   -0.2003 
 C                    -5.225    -0.0498   -0.4513 
 C                    -4.0072    0.6381   -0.4136 
 C                    -2.7718   -0.0049   -0.127 
 C                    -2.842    -1.3935    0.1215 
 C                    -4.0696   -2.079     0.0862 
 C                    -1.6811   -2.088     0.4337 
 C                    -0.4458   -1.4392    0.4483 
 C                    -0.2777   -0.0757    0.1288 
 C                    -1.4862    0.6585   -0.0689 
 C                    -1.3749    2.0542   -0.1639 
 C                    -0.1567    2.7079   -0.0267 
 C                     1.0297    1.9941    0.1059 
 C                     2.207     2.7293    0.2654 
 C                     3.437     2.0981    0.3641 
 C                     3.5321    0.7208    0.2039 
 C                     4.8102    0.134     0.2087 
 C                     4.9806   -1.2197   -0.0535 
 C                     3.8731   -1.9902   -0.3568 
 C                     2.598    -1.4118   -0.3453 
 C                     2.3577   -0.0548   -0.0005 
 C                     1.0354    0.5771    0.0779 
 H                    -6.1967   -1.9539   -0.2259 
 H                    -6.1434    0.4848   -0.6788 
 H                    -4.0451    1.7018   -0.6298 
 H                    -4.109    -3.1482    0.2851 
 H                    -1.716    -3.1463    0.6836 
 H                     0.3947   -2.0349    0.7916 
 H                    -2.2502    2.6851   -0.2851 
 H                    -0.1532    3.7964   -0.0419 
 H                     2.18      3.8159    0.3259 
 H                     4.3266    2.7071    0.5083 
 H                     5.6948    0.7403    0.3946 
 H                     5.9747   -1.6571   -0.0593 
 H                     3.9909   -3.0376   -0.6217 
 H                     1.7854   -2.0477   -0.6833 
 

 GradGradGradGradGradGradGradGradGradGradGradGradGradGradGradGradGradGrad
 Berny optimization.
 Initialization pass.
                           ----------------------------
                           !    Initial Parameters    !
                           ! (Angstroms and Degrees)  !
 --------------------------                            --------------------------
 ! Name  Definition              Value          Derivative Info.                !
 --------------------------------------------------------------------------------
 ! R1    R(1,2)                  1.3851         estimate D2E/DX2                !
 ! R2    R(1,6)                  1.391          estimate D2E/DX2                !
 ! R3    R(1,23)                 1.0862         estimate D2E/DX2                !
 ! R4    R(2,3)                  1.3992         estimate D2E/DX2                !
 ! R5    R(2,24)                 1.0867         estimate D2E/DX2                !
 ! R6    R(3,4)                  1.4219         estimate D2E/DX2                !
 ! R7    R(3,25)                 1.0861         estimate D2E/DX2                !
 ! R8    R(4,5)                  1.4124         estimate D2E/DX2                !
 ! R9    R(4,10)                 1.4478         estimate D2E/DX2                !
 ! R10   R(5,6)                  1.4065         estimate D2E/DX2                !
 ! R11   R(5,7)                  1.3883         estimate D2E/DX2                !
 ! R12   R(6,26)                 1.0883         estimate D2E/DX2                !
 ! R13   R(7,8)                  1.3954         estimate D2E/DX2                !
 ! R14   R(7,27)                 1.088          estimate D2E/DX2                !
 ! R15   R(8,9)                  1.4105         estimate D2E/DX2                !
 ! R16   R(8,28)                 1.0859         estimate D2E/DX2                !
 ! R17   R(9,10)                 1.4278         estimate D2E/DX2                !
 ! R18   R(9,22)                 1.4673         estimate D2E/DX2                !
 ! R19   R(10,11)                1.4033         estimate D2E/DX2                !
 ! R20   R(11,12)                1.3893         estimate D2E/DX2                !
 ! R21   R(11,29)                1.0858         estimate D2E/DX2                !
 ! R22   R(12,13)                1.3909         estimate D2E/DX2                !
 ! R23   R(12,30)                1.0886         estimate D2E/DX2                !
 ! R24   R(13,14)                1.3971         estimate D2E/DX2                !
 ! R25   R(13,22)                1.4173         estimate D2E/DX2                !
 ! R26   R(14,15)                1.386          estimate D2E/DX2                !
 ! R27   R(14,31)                1.0886         estimate D2E/DX2                !
 ! R28   R(15,16)                1.3898         estimate D2E/DX2                !
 ! R29   R(15,32)                1.0877         estimate D2E/DX2                !
 ! R30   R(16,17)                1.4064         estimate D2E/DX2                !
 ! R31   R(16,21)                1.4222         estimate D2E/DX2                !
 ! R32   R(17,18)                1.3893         estimate D2E/DX2                !
 ! R33   R(17,33)                1.0884         estimate D2E/DX2                !
 ! R34   R(18,19)                1.3828         estimate D2E/DX2                !
 ! R35   R(18,34)                1.0861         estimate D2E/DX2                !
 ! R36   R(19,20)                1.4002         estimate D2E/DX2                !
 ! R37   R(19,35)                1.0868         estimate D2E/DX2                !
 ! R38   R(20,21)                1.4206         estimate D2E/DX2                !
 ! R39   R(20,36)                1.0858         estimate D2E/DX2                !
 ! R40   R(21,22)                1.4676         estimate D2E/DX2                !
 ! A1    A(2,1,6)              119.3432         estimate D2E/DX2                !
 ! A2    A(2,1,23)             120.3924         estimate D2E/DX2                !
 ! A3    A(6,1,23)             120.2644         estimate D2E/DX2                !
 ! A4    A(1,2,3)              119.8625         estimate D2E/DX2                !
 ! A5    A(1,2,24)             120.1816         estimate D2E/DX2                !
 ! A6    A(3,2,24)             119.9559         estimate D2E/DX2                !
 ! A7    A(2,3,4)              122.6371         estimate D2E/DX2                !
 ! A8    A(2,3,25)             116.4726         estimate D2E/DX2                !
 ! A9    A(4,3,25)             120.8853         estimate D2E/DX2                !
 ! A10   A(3,4,5)              115.9043         estimate D2E/DX2                !
 ! A11   A(3,4,10)             124.9152         estimate D2E/DX2                !
 ! A12   A(5,4,10)             119.1796         estimate D2E/DX2                !
 ! A13   A(4,5,6)              121.2076         estimate D2E/DX2                !
 ! A14   A(4,5,7)              119.3281         estimate D2E/DX2                !
 ! A15   A(6,5,7)              119.4503         estimate D2E/DX2                !
 ! A16   A(1,6,5)              121.0448         estimate D2E/DX2                !
 ! A17   A(1,6,26)             118.5661         estimate D2E/DX2                !
 ! A18   A(5,6,26)             120.389          estimate D2E/DX2                !
 ! A19   A(5,7,8)              120.6643         estimate D2E/DX2                !
 ! A20   A(5,7,27)             120.7589         estimate D2E/DX2                !
 ! A21   A(8,7,27)             118.5728         estimate D2E/DX2                !
 ! A22   A(7,8,9)              123.5459         estimate D2E/DX2                !
 ! A23   A(7,8,28)             115.6871         estimate D2E/DX2                !
 ! A24   A(9,8,28)             120.6422         estimate D2E/DX2                !
 ! A25   A(8,9,10)             115.3141         estimate D2E/DX2                !
 ! A26   A(8,9,22)             122.9967         estimate D2E/DX2                !
 ! A27   A(10,9,22)            121.5929         estimate D2E/DX2                !
 ! A28   A(4,10,9)             121.4332         estimate D2E/DX2                !
 ! A29   A(4,10,11)            121.5612         estimate D2E/DX2                !
 ! A30   A(9,10,11)            116.9787         estimate D2E/DX2                !
 ! A31   A(10,11,12)           122.0607         estimate D2E/DX2                !
 ! A32   A(10,11,29)           121.4343         estimate D2E/DX2                !
 ! A33   A(12,11,29)           116.3911         estimate D2E/DX2                !
 ! A34   A(11,12,13)           121.0552         estimate D2E/DX2                !
 ! A35   A(11,12,30)           118.1588         estimate D2E/DX2                !
 ! A36   A(13,12,30)           120.7788         estimate D2E/DX2                !
 ! A37   A(12,13,14)           117.3604         estimate D2E/DX2                !
 ! A38   A(12,13,22)           120.9728         estimate D2E/DX2                !
 ! A39   A(14,13,22)           121.6668         estimate D2E/DX2                !
 ! A40   A(13,14,15)           121.0833         estimate D2E/DX2                !
 ! A41   A(13,14,31)           120.7097         estimate D2E/DX2                !
 ! A42   A(15,14,31)           118.204          estimate D2E/DX2                !
 ! A43   A(14,15,16)           120.2523         estimate D2E/DX2                !
 ! A44   A(14,15,32)           118.7033         estimate D2E/DX2                !
 ! A45   A(16,15,32)           120.9419         estimate D2E/DX2                !
 ! A46   A(15,16,17)           118.3768         estimate D2E/DX2                !
 ! A47   A(15,16,21)           120.0335         estimate D2E/DX2                !
 ! A48   A(17,16,21)           121.5609         estimate D2E/DX2                !
 ! A49   A(16,17,18)           121.1549         estimate D2E/DX2                !
 ! A50   A(16,17,33)           120.4485         estimate D2E/DX2                !
 ! A51   A(18,17,33)           118.3791         estimate D2E/DX2                !
 ! A52   A(17,18,19)           119.0819         estimate D2E/DX2                !
 ! A53   A(17,18,34)           120.3754         estimate D2E/DX2                !
 ! A54   A(19,18,34)           120.4969         estimate D2E/DX2                !
 ! A55   A(18,19,20)           119.8262         estimate D2E/DX2                !
 ! A56   A(18,19,35)           120.2418         estimate D2E/DX2                !
 ! A57   A(20,19,35)           119.9223         estimate D2E/DX2                !
 ! A58   A(19,20,21)           123.4101         estimate D2E/DX2                !
 ! A59   A(19,20,36)           115.9158         estimate D2E/DX2                !
 ! A60   A(21,20,36)           120.5575         estimate D2E/DX2                !
 ! A61   A(16,21,20)           114.5919         estimate D2E/DX2                !
 ! A62   A(16,21,22)           120.1009         estimate D2E/DX2                !
 ! A63   A(20,21,22)           125.2158         estimate D2E/DX2                !
 ! A64   A(9,22,13)            116.1373         estimate D2E/DX2                !
 ! A65   A(9,22,21)            128.0677         estimate D2E/DX2                !
 ! A66   A(13,22,21)           115.7949         estimate D2E/DX2                !
 ! D1    D(6,1,2,3)             -0.0414         estimate D2E/DX2                !
 ! D2    D(6,1,2,24)           179.8608         estimate D2E/DX2                !
 ! D3    D(23,1,2,3)           179.9114         estimate D2E/DX2                !
 ! D4    D(23,1,2,24)           -0.1864         estimate D2E/DX2                !
 ! D5    D(2,1,6,5)             -0.1521         estimate D2E/DX2                !
 ! D6    D(2,1,6,26)           179.7728         estimate D2E/DX2                !
 ! D7    D(23,1,6,5)           179.8951         estimate D2E/DX2                !
 ! D8    D(23,1,6,26)           -0.1801         estimate D2E/DX2                !
 ! D9    D(1,2,3,4)              0.1373         estimate D2E/DX2                !
 ! D10   D(1,2,3,25)           179.3308         estimate D2E/DX2                !
 ! D11   D(24,2,3,4)          -179.7652         estimate D2E/DX2                !
 ! D12   D(24,2,3,25)           -0.5716         estimate D2E/DX2                !
 ! D13   D(2,3,4,5)             -0.0359         estimate D2E/DX2                !
 ! D14   D(2,3,4,10)          -179.6863         estimate D2E/DX2                !
 ! D15   D(25,3,4,5)          -179.1948         estimate D2E/DX2                !
 ! D16   D(25,3,4,10)            1.1549         estimate D2E/DX2                !
 ! D17   D(3,4,5,6)             -0.1585         estimate D2E/DX2                !
 ! D18   D(3,4,5,7)           -178.7953         estimate D2E/DX2                !
 ! D19   D(10,4,5,6)           179.5132         estimate D2E/DX2                !
 ! D20   D(10,4,5,7)             0.8763         estimate D2E/DX2                !
 ! D21   D(3,4,10,9)          -175.3343         estimate D2E/DX2                !
 ! D22   D(3,4,10,11)            6.61           estimate D2E/DX2                !
 ! D23   D(5,4,10,9)             5.0259         estimate D2E/DX2                !
 ! D24   D(5,4,10,11)         -173.0298         estimate D2E/DX2                !
 ! D25   D(4,5,6,1)              0.2578         estimate D2E/DX2                !
 ! D26   D(4,5,6,26)          -179.6657         estimate D2E/DX2                !
 ! D27   D(7,5,6,1)            178.8931         estimate D2E/DX2                !
 ! D28   D(7,5,6,26)            -1.0304         estimate D2E/DX2                !
 ! D29   D(4,5,7,8)             -2.7011         estimate D2E/DX2                !
 ! D30   D(4,5,7,27)           176.5695         estimate D2E/DX2                !
 ! D31   D(6,5,7,8)            178.6377         estimate D2E/DX2                !
 ! D32   D(6,5,7,27)            -2.0916         estimate D2E/DX2                !
 ! D33   D(5,7,8,9)             -1.3972         estimate D2E/DX2                !
 ! D34   D(5,7,8,28)           174.5569         estimate D2E/DX2                !
 ! D35   D(27,7,8,9)           179.3165         estimate D2E/DX2                !
 ! D36   D(27,7,8,28)           -4.7294         estimate D2E/DX2                !
 ! D37   D(7,8,9,10)             6.9098         estimate D2E/DX2                !
 ! D38   D(7,8,9,22)          -176.6129         estimate D2E/DX2                !
 ! D39   D(28,8,9,10)         -168.8521         estimate D2E/DX2                !
 ! D40   D(28,8,9,22)            7.6253         estimate D2E/DX2                !
 ! D41   D(8,9,10,4)            -8.5953         estimate D2E/DX2                !
 ! D42   D(8,9,10,11)          169.5457         estimate D2E/DX2                !
 ! D43   D(22,9,10,4)          174.8731         estimate D2E/DX2                !
 ! D44   D(22,9,10,11)          -6.9859         estimate D2E/DX2                !
 ! D45   D(8,9,22,13)         -163.4201         estimate D2E/DX2                !
 ! D46   D(8,9,22,21)           16.6749         estimate D2E/DX2                !
 ! D47   D(10,9,22,13)          12.8411         estimate D2E/DX2                !
 ! D48   D(10,9,22,21)        -167.0639         estimate D2E/DX2                !
 ! D49   D(4,10,11,12)         175.9335         estimate D2E/DX2                !
 ! D50   D(4,10,11,29)          -0.0445         estimate D2E/DX2                !
 ! D51   D(9,10,11,12)          -2.205          estimate D2E/DX2                !
 ! D52   D(9,10,11,29)        -178.183          estimate D2E/DX2                !
 ! D53   D(10,11,12,13)          5.2036         estimate D2E/DX2                !
 ! D54   D(10,11,12,30)       -175.7702         estimate D2E/DX2                !
 ! D55   D(29,11,12,13)       -178.6271         estimate D2E/DX2                !
 ! D56   D(29,11,12,30)          0.3991         estimate D2E/DX2                !
 ! D57   D(11,12,13,14)       -178.7688         estimate D2E/DX2                !
 ! D58   D(11,12,13,22)          1.2919         estimate D2E/DX2                !
 ! D59   D(30,12,13,14)          2.2305         estimate D2E/DX2                !
 ! D60   D(30,12,13,22)       -177.7088         estimate D2E/DX2                !
 ! D61   D(12,13,14,15)       -178.0417         estimate D2E/DX2                !
 ! D62   D(12,13,14,31)          2.6018         estimate D2E/DX2                !
 ! D63   D(22,13,14,15)          1.8971         estimate D2E/DX2                !
 ! D64   D(22,13,14,31)       -177.4594         estimate D2E/DX2                !
 ! D65   D(12,13,22,9)          -9.8403         estimate D2E/DX2                !
 ! D66   D(12,13,22,21)        170.0766         estimate D2E/DX2                !
 ! D67   D(14,13,22,9)         170.2232         estimate D2E/DX2                !
 ! D68   D(14,13,22,21)         -9.8599         estimate D2E/DX2                !
 ! D69   D(13,14,15,16)          4.9045         estimate D2E/DX2                !
 ! D70   D(13,14,15,32)       -178.7422         estimate D2E/DX2                !
 ! D71   D(31,14,15,16)       -175.7233         estimate D2E/DX2                !
 ! D72   D(31,14,15,32)          0.63           estimate D2E/DX2                !
 ! D73   D(14,15,16,17)        175.1522         estimate D2E/DX2                !
 ! D74   D(14,15,16,21)         -2.924          estimate D2E/DX2                !
 ! D75   D(32,15,16,17)         -1.1183         estimate D2E/DX2                !
 ! D76   D(32,15,16,21)       -179.1945         estimate D2E/DX2                !
 ! D77   D(15,16,17,18)       -174.773          estimate D2E/DX2                !
 ! D78   D(15,16,17,33)          3.6755         estimate D2E/DX2                !
 ! D79   D(21,16,17,18)          3.2724         estimate D2E/DX2                !
 ! D80   D(21,16,17,33)       -178.2791         estimate D2E/DX2                !
 ! D81   D(15,16,21,20)        171.1713         estimate D2E/DX2                !
 ! D82   D(15,16,21,22)         -5.5302         estimate D2E/DX2                !
 ! D83   D(17,16,21,20)         -6.8422         estimate D2E/DX2                !
 ! D84   D(17,16,21,22)        176.4563         estimate D2E/DX2                !
 ! D85   D(16,17,18,19)          1.6447         estimate D2E/DX2                !
 ! D86   D(16,17,18,34)        179.1981         estimate D2E/DX2                !
 ! D87   D(33,17,18,19)       -176.8351         estimate D2E/DX2                !
 ! D88   D(33,17,18,34)          0.7183         estimate D2E/DX2                !
 ! D89   D(17,18,19,20)         -2.4398         estimate D2E/DX2                !
 ! D90   D(17,18,19,35)        176.4282         estimate D2E/DX2                !
 ! D91   D(34,18,19,20)       -179.9902         estimate D2E/DX2                !
 ! D92   D(34,18,19,35)         -1.1222         estimate D2E/DX2                !
 ! D93   D(18,19,20,21)         -1.656          estimate D2E/DX2                !
 ! D94   D(18,19,20,36)        174.4305         estimate D2E/DX2                !
 ! D95   D(35,19,20,21)        179.4723         estimate D2E/DX2                !
 ! D96   D(35,19,20,36)         -4.4411         estimate D2E/DX2                !
 ! D97   D(19,20,21,16)          6.135          estimate D2E/DX2                !
 ! D98   D(19,20,21,22)       -177.3582         estimate D2E/DX2                !
 ! D99   D(36,20,21,16)       -169.7771         estimate D2E/DX2                !
 ! D100  D(36,20,21,22)          6.7296         estimate D2E/DX2                !
 ! D101  D(16,21,22,9)        -168.4887         estimate D2E/DX2                !
 ! D102  D(16,21,22,13)         11.606          estimate D2E/DX2                !
 ! D103  D(20,21,22,9)          15.183          estimate D2E/DX2                !
 ! D104  D(20,21,22,13)       -164.7223         estimate D2E/DX2                !
 --------------------------------------------------------------------------------
 Trust Radius=3.00D-01 FncErr=1.00D-07 GrdErr=1.00D-06 EigMax=2.50D+02 EigMin=1.00D-04
 Number of steps in this run=    216 maximum allowed number of steps=    216.
 GradGradGradGradGradGradGradGradGradGradGradGradGradGradGradGradGradGrad

                          Input orientation:                          
 ---------------------------------------------------------------------
 Center     Atomic      Atomic             Coordinates (Angstroms)
 Number     Number       Type             X           Y           Z
 ---------------------------------------------------------------------
      1          6           0       -5.255900   -1.411600   -0.200300
      2          6           0       -5.225000   -0.049800   -0.451300
      3          6           0       -4.007200    0.638100   -0.413600
      4          6           0       -2.771800   -0.004900   -0.127000
      5          6           0       -2.842000   -1.393500    0.121500
      6          6           0       -4.069600   -2.079000    0.086200
      7          6           0       -1.681100   -2.088000    0.433700
      8          6           0       -0.445800   -1.439200    0.448300
      9          6           0       -0.277700   -0.075700    0.128800
     10          6           0       -1.486200    0.658500   -0.068900
     11          6           0       -1.374900    2.054200   -0.163900
     12          6           0       -0.156700    2.707900   -0.026700
     13          6           0        1.029700    1.994100    0.105900
     14          6           0        2.207000    2.729300    0.265400
     15          6           0        3.437000    2.098100    0.364100
     16          6           0        3.532100    0.720800    0.203900
     17          6           0        4.810200    0.134000    0.208700
     18          6           0        4.980600   -1.219700   -0.053500
     19          6           0        3.873100   -1.990200   -0.356800
     20          6           0        2.598000   -1.411800   -0.345300
     21          6           0        2.357700   -0.054800   -0.000500
     22          6           0        1.035400    0.577100    0.077900
     23          1           0       -6.196700   -1.953900   -0.225900
     24          1           0       -6.143400    0.484800   -0.678800
     25          1           0       -4.045100    1.701800   -0.629800
     26          1           0       -4.109000   -3.148200    0.285100
     27          1           0       -1.716000   -3.146300    0.683600
     28          1           0        0.394700   -2.034900    0.791600
     29          1           0       -2.250200    2.685100   -0.285100
     30          1           0       -0.153200    3.796400   -0.041900
     31          1           0        2.180000    3.815900    0.325900
     32          1           0        4.326600    2.707100    0.508300
     33          1           0        5.694800    0.740300    0.394600
     34          1           0        5.974700   -1.657100   -0.059300
     35          1           0        3.990900   -3.037600   -0.621700
     36          1           0        1.785400   -2.047700   -0.683300
 ---------------------------------------------------------------------
                    Distance matrix (angstroms):
                    1          2          3          4          5
     1  C    0.000000
     2  C    1.385083   0.000000
     3  C    2.409568   1.399166   0.000000
     4  C    2.855684   2.474950   1.421901   0.000000
     5  C    2.435323   2.795053   2.402378   1.412406   0.000000
     6  C    1.390975   2.396144   2.763390   2.455938   1.406470
     7  C    3.693057   4.182907   3.682429   2.417295   1.388340
     8  C    4.853711   5.057713   4.212080   2.792573   2.418814
     9  C    5.164824   4.981261   3.835737   2.508183   2.883103
    10  C    4.302699   3.824467   2.544538   1.447841   2.466810
    11  C    5.203389   4.396895   2.999449   2.488490   3.757721
    12  C    6.557611   5.785573   4.388635   3.769362   4.904516
    13  C    7.155510   6.603732   5.242039   4.301354   5.144525
    14  C    8.547444   7.966912   6.591695   5.693705   6.520014
    15  C    9.391648   8.961506   7.625781   6.573658   7.188600
    16  C    9.052041   8.815323   7.564998   6.354155   6.716115
    17  C   10.192278  10.058560   8.853695   7.590699   7.803655
    18  C   10.239351  10.280135   9.184859   7.847346   7.826487
    19  C    9.148656   9.303199   8.307245   6.938942   6.758505
    20  C    7.855238   7.941386   6.916316   5.555337   5.460022
    21  C    7.736132   7.596090   6.415817   5.131302   5.370650
    22  C    6.603997   6.313926   5.066864   3.856874   4.349643
    23  H    1.086209   2.149559   3.398177   3.941868   3.418881
    24  H    2.147778   1.086744   2.158051   3.451373   3.881718
    25  H    3.368051   2.119464   1.086111   2.187904   3.404818
    26  H    2.137001   3.374585   3.851573   3.440678   2.170490
    27  H    4.039970   4.815536   4.557974   3.411771   2.157809
    28  H    5.770758   6.088222   5.289060   3.871879   3.366995
    29  H    5.081769   4.044346   2.700698   2.744661   4.141320
    30  H    7.292867   6.378402   4.996632   4.616729   5.847342
    31  H    9.104738   8.389380   6.994764   6.270881   7.238792
    32  H   10.454191   9.987712   8.636138   7.625341   8.267609
    33  H   11.175975  10.980976   9.736141   8.515322   8.803672
    34  H   11.234168  11.321235  10.248502   8.901439   8.822492
    35  H    9.398126   9.689623   8.804753   7.428062   7.067102
    36  H    7.086453   7.293225   6.390655   5.024995   4.742205
                    6          7          8          9         10
     6  C    0.000000
     7  C    2.413663   0.000000
     8  C    3.697619   1.395393   0.000000
     9  C    4.288768   2.472215   1.410486   0.000000
    10  C    3.767216   2.798902   2.397973   1.427798   0.000000
    11  C    4.940375   4.196273   3.666314   2.413710   1.403350
    12  C    6.183684   5.053357   4.184213   2.790564   2.443234
    13  C    6.526361   4.911154   3.752584   2.448242   2.853793
    14  C    7.908702   6.192901   4.944410   3.749722   4.247316
    15  C    8.595024   6.612354   5.253163   4.310426   5.147605
    16  C    8.101764   5.926181   4.533103   3.892895   5.026096
    17  C    9.152225   6.864757   5.491621   5.092846   6.324304
    18  C    9.091976   6.735693   5.453971   5.384393   6.734046
    19  C    7.955540   5.611024   4.427718   4.596766   5.985031
    20  C    6.714778   4.401680   3.145675   3.206179   4.587290
    21  C    6.739072   4.542503   3.158733   2.638653   3.910121
    22  C    5.754647   3.822136   2.529153   1.467300   2.527181
    23  H    2.153511   4.565490   5.813116   6.219969   5.388700
    24  H    3.385106   5.269637   6.118397   5.947505   4.700177
    25  H    3.848078   4.591526   4.897259   4.234180   2.819761
    26  H    1.088257   2.653451   4.045535   4.913608   4.636309
    27  H    2.652442   1.087965   2.140786   3.435854   3.885301
    28  H    4.519901   2.107097   1.085888   2.174831   3.395975
    29  H    5.113192   4.860353   4.561095   3.418199   2.176590
    30  H    7.062218   6.098101   5.266633   3.877860   3.409404
    31  H    8.594463   7.055193   5.875873   4.606917   4.854489
    32  H    9.673732   7.687068   6.322279   5.393290   6.190199
    33  H   10.167943   7.899665   6.516139   6.033843   7.196408
    34  H   10.054210   7.683749   6.444219   6.452032   7.811986
    35  H    8.148110   5.846982   4.835710   5.249481   6.630639
    36  H    5.905433   3.642243   2.574693   2.967267   4.290032
                   11         12         13         14         15
    11  C    0.000000
    12  C    1.389302   0.000000
    13  C    2.420435   1.390913   0.000000
    14  C    3.670159   2.381776   1.397138   0.000000
    15  C    4.840981   3.665960   2.423340   1.386021   0.000000
    16  C    5.098223   4.196306   2.809431   2.407020   1.389843
    17  C    6.487022   5.599149   4.214584   3.676336   2.401565
    18  C    7.150034   6.466731   5.095442   4.836234   3.683054
    19  C    6.628415   6.198419   4.916672   5.043481   4.174216
    20  C    5.275414   4.966065   3.776679   4.204110   3.677848
    21  C    4.290324   3.735693   2.443951   2.800826   2.435734
    22  C    2.837224   2.443840   1.417288   2.457594   2.857102
    23  H    6.270444   7.632409   8.241217   9.633063  10.467807
    24  H    5.046457   6.419345   7.372049   8.698188   9.771102
    25  H    2.733353   4.061480   5.136175   6.398898   7.558221
    26  H    5.894223   7.071902   7.271974   8.627702   9.190866
    27  H    5.280133   6.099803   5.856306   7.077252   7.359295
    28  H    4.556885   4.844358   4.135970   5.124346   5.149761
    29  H    1.085760   2.109510   3.374627   4.491284   5.754153
    30  H    2.131360   1.088612   2.160875   2.608386   3.992317
    31  H    3.997600   2.610011   2.165767   1.088618   2.128931
    32  H    5.777996   4.515108   3.397035   2.133588   1.087687
    33  H    7.212414   6.187810   4.839269   4.017159   2.634808
    34  H    8.234155   7.526510   6.149112   5.791502   4.552001
    35  H    7.411330   7.111075   5.883546   6.101343   5.258709
    36  H    5.204119   5.178668   4.186892   4.888508   4.583938
                   16         17         18         19         20
    16  C    0.000000
    17  C    1.406377   0.000000
    18  C    2.435148   1.389348   0.000000
    19  C    2.789299   2.389597   1.382829   0.000000
    20  C    2.392101   2.755039   2.408076   1.400200   0.000000
    21  C    1.422164   2.468637   2.870436   2.483779   1.420591
    22  C    2.504004   3.802967   4.337091   3.851303   2.564477
    23  H   10.098926  11.211603  11.202714  10.070716   8.812200
    24  H    9.718547  10.995093  11.271189  10.322770   8.950999
    25  H    7.685791   9.032022   9.504238   8.740897   7.342086
    26  H    8.565172   9.504252   9.298096   8.091163   6.956748
    27  H    6.536599   7.319644   7.007108   5.801469   4.762113
    28  H    4.216936   4.953841   4.733838   3.663344   2.556428
    29  H    6.126385   7.523377   8.221044   7.704439   6.347697
    30  H    4.806368   6.173436   7.177555   7.056557   5.898008
    31  H    3.379749   4.526376   5.774476   6.086334   5.287162
    32  H    2.160851   2.635237   4.020335   4.797779   4.547750
    33  H    2.171179   1.088428   2.133653   3.367317   3.843066
    34  H    3.419061   2.153119   1.086088   2.148531   3.397657
    35  H    3.875266   3.379329   2.146420   1.086782   2.158655
    36  H    3.391560   3.834696   3.360288   2.113859   1.085786
                   21         22         23         24         25
    21  C    0.000000
    22  C    1.467624   0.000000
    23  H    8.765566   7.668215   0.000000
    24  H    8.545172   7.219161   2.480971   0.000000
    25  H    6.669146   5.251406   4.261063   2.426181   0.000000
    26  H    7.174183   6.354970   2.458854   4.273941   4.935952
    27  H    5.159496   4.669131   4.725006   5.885821   5.536587
    28  H    2.898549   2.782518   6.669964   7.159449   5.974540
    29  H    5.368500   3.920536   6.090869   4.489246   2.075419
    30  H    4.597616   3.433805   8.344082   6.874215   4.458684
    31  H    3.888500   3.444044  10.186470   9.021343   6.643392
    32  H    3.429801   3.943874  11.532728  10.768878   8.508305
    33  H    3.453190   4.673001  12.208665  11.889510   9.840708
    34  H    3.956452   5.422837  12.176158  12.321520  10.583198
    35  H    3.456925   4.721279  10.252719  10.729147   9.329484
    36  H    2.182978   2.833990   7.995745   8.323428   6.932268
                   26         27         28         29         30
    26  H    0.000000
    27  H    2.425954   0.000000
    28  H    4.666829   2.387871   0.000000
    29  H    6.148793   5.935400   5.516627   0.000000
    30  H    7.998922   7.153305   5.915993   2.385695   0.000000
    31  H    9.383596   7.986175   6.134821   4.612884   2.362092
    32  H   10.271013   8.414632   6.166576   6.624520   4.643049
    33  H   10.547365   8.373120   5.995866   8.207756   6.612820
    34  H   10.199166   7.868703   5.657134   9.303476   8.203178
    35  H    8.151251   5.855282   3.991927   8.474310   8.013319
    36  H    6.073948   3.916011   2.027200   6.232498   6.190563
                   31         32         33         34         35
    31  H    0.000000
    32  H    2.422932   0.000000
    33  H    4.670959   2.398583   0.000000
    34  H    6.670971   4.699430   2.455992   0.000000
    35  H    7.151767   5.864399   4.267162   2.481438   0.000000
    36  H    5.962885   5.521389   4.921201   4.253490   2.418249
                   36
    36  H    0.000000
 Stoichiometry    C22H14
 Framework group  C1[X(C22H14)]
 Deg. of freedom   102
 Full point group                 C1      NOp   1
 Largest Abelian subgroup         C1      NOp   1
 Largest concise Abelian subgroup C1      NOp   1
                         Standard orientation:                         
 ---------------------------------------------------------------------
 Center     Atomic      Atomic             Coordinates (Angstroms)
 Number     Number       Type             X           Y           Z
 ---------------------------------------------------------------------
      1          6           0        5.395211   -0.866669    0.066874
      2          6           0        5.222657    0.483286    0.324365
      3          6           0        3.936590    1.034361    0.320894
      4          6           0        2.771570    0.260907    0.063410
      5          6           0        2.986161   -1.111407   -0.192705
      6          6           0        4.281643   -1.659025   -0.191876
      7          6           0        1.900118   -1.927896   -0.477914
      8          6           0        0.601522   -1.417628   -0.458009
      9          6           0        0.294228   -0.081039   -0.128509
     10          6           0        1.420268    0.780265    0.041184
     11          6           0        1.160069    2.155373    0.144938
     12          6           0       -0.125257    2.672550    0.041866
     13          6           0       -1.229865    1.833842   -0.063231
     14          6           0       -2.484009    2.436524   -0.189300
     15          6           0       -3.640061    1.675121   -0.259037
     16          6           0       -3.580331    0.295437   -0.102295
     17          6           0       -4.786576   -0.427208   -0.076739
     18          6           0       -4.801590   -1.791787    0.184004
     19          6           0       -3.609221   -2.437373    0.455468
     20          6           0       -2.405466   -1.723382    0.413659
     21          6           0       -2.323500   -0.347784    0.068562
     22          6           0       -1.080410    0.424629   -0.041110
     23          1           0        6.389842   -1.303197    0.065986
     24          1           0        6.082945    1.114508    0.530456
     25          1           0        3.863977    2.095544    0.540563
     26          1           0        4.432118   -2.717272   -0.396260
     27          1           0        2.043607   -2.975726   -0.733120
     28          1           0       -0.177711   -2.100929   -0.782122
     29          1           0        1.964272    2.877773    0.246281
     30          1           0       -0.246938    3.754157    0.061772
     31          1           0       -2.577144    3.519675   -0.245860
     32          1           0       -4.594167    2.183702   -0.377741
     33          1           0       -5.736504    0.079293   -0.237269
     34          1           0       -5.741625   -2.334974    0.213492
     35          1           0       -3.605270   -3.491748    0.718859
     36          1           0       -1.519904   -2.267372    0.727962
 ---------------------------------------------------------------------
 Rotational constants (GHZ):           0.7234925           0.1753272           0.1426461
 Standard basis: def2SVPP (5D, 7F)
 There are   358 symmetry adapted cartesian basis functions of A   symmetry.
 There are   336 symmetry adapted basis functions of A   symmetry.
   336 basis functions,   606 primitive gaussians,   358 cartesian basis functions
    73 alpha electrons       73 beta electrons
       nuclear repulsion energy      1553.5952466623 Hartrees.
 NAtoms=   36 NActive=   36 NUniq=   36 SFac= 1.00D+00 NAtFMM=   60 NAOKFM=F Big=F
 Integral buffers will be    131072 words long.
 Raffenetti 2 integral format.
 Two-electron integral symmetry is turned on.
 Nuclear repulsion after empirical dispersion term =     1553.5021640733 Hartrees.
 One-electron integrals computed using PRISM.
   1 Symmetry operations used in ECPInt.
 ECPInt:  NShTT=   12880 NPrTT=   51688 LenC2=   11753 LenP2D=   32201.
 LDataN:  DoStor=T MaxTD1= 4 Len=   56
 NBasis=   336 RedAO= T EigKep=  2.25D-04  NBF=   336
 NBsUse=   336 1.00D-06 EigRej= -1.00D+00 NBFU=   336
 ExpMin= 1.22D-01 ExpMax= 1.24D+03 ExpMxC= 1.86D+02 IAcc=3 IRadAn=         5 AccDes= 0.00D+00
 Harris functional with IExCor=  402 and IRadAn=       5 diagonalized for initial guess.
 HarFok:  IExCor=  402 AccDes= 0.00D+00 IRadAn=         5 IDoV= 1 UseB2=F ITyADJ=14
 ICtDFT=  3500011 ScaDFX=  1.000000  1.000000  1.000000  1.000000
 FoFCou: FMM=F IPFlag=           0 FMFlag=      100000 FMFlg1=           0
         NFxFlg=           0 DoJE=T BraDBF=F KetDBF=T FulRan=T
         wScrn=  0.000000 ICntrl=       500 IOpCl=  0 I1Cent=   200000004 NGrid=           0
         NMat0=    1 NMatS0=      1 NMatT0=    0 NMatD0=    1 NMtDS0=    0 NMtDT0=    0
 Petite list used in FoFCou.
 Requested convergence on RMS density matrix=1.00D-08 within 128 cycles.
 Requested convergence on MAX density matrix=1.00D-06.
 Requested convergence on             energy=1.00D-06.
 No special actions if energy rises.
 Integral accuracy reduced to 1.0D-05 until final iterations.
 Initial convergence to 1.0D-05 achieved.  Increase integral accuracy.
 SCF Done:  E(RB3LYP) =  -846.260834407     A.U. after   15 cycles
            NFock= 15  Conv=0.46D-08     -V/T= 2.0105

 **********************************************************************

            Population analysis using the SCF Density.

 **********************************************************************

 Orbital symmetries:
       Occupied  (A) (A) (A) (A) (A) (A) (A) (A) (A) (A) (A) (A)
                 (A) (A) (A) (A) (A) (A) (A) (A) (A) (A) (A) (A)
                 (A) (A) (A) (A) (A) (A) (A) (A) (A) (A) (A) (A)
                 (A) (A) (A) (A) (A) (A) (A) (A) (A) (A) (A) (A)
                 (A) (A) (A) (A) (A) (A) (A) (A) (A) (A) (A) (A)
                 (A) (A) (A) (A) (A) (A) (A) (A) (A) (A) (A) (A)
                 (A)
       Virtual   (A) (A) (A) (A) (A) (A) (A) (A) (A) (A) (A) (A)
                 (A) (A) (A) (A) (A) (A) (A) (A) (A) (A) (A) (A)
                 (A) (A) (A) (A) (A) (A) (A) (A) (A) (A) (A) (A)
                 (A) (A) (A) (A) (A) (A) (A) (A) (A) (A) (A) (A)
                 (A) (A) (A) (A) (A) (A) (A) (A) (A) (A) (A) (A)
                 (A) (A) (A) (A) (A) (A) (A) (A) (A) (A) (A) (A)
                 (A) (A) (A) (A) (A) (A) (A) (A) (A) (A) (A) (A)
                 (A) (A) (A) (A) (A) (A) (A) (A) (A) (A) (A) (A)
                 (A) (A) (A) (A) (A) (A) (A) (A) (A) (A) (A) (A)
                 (A) (A) (A) (A) (A) (A) (A) (A) (A) (A) (A) (A)
                 (A) (A) (A) (A) (A) (A) (A) (A) (A) (A) (A) (A)
                 (A) (A) (A) (A) (A) (A) (A) (A) (A) (A) (A) (A)
                 (A) (A) (A) (A) (A) (A) (A) (A) (A) (A) (A) (A)
                 (A) (A) (A) (A) (A) (A) (A) (A) (A) (A) (A) (A)
                 (A) (A) (A) (A) (A) (A) (A) (A) (A) (A) (A) (A)
                 (A) (A) (A) (A) (A) (A) (A) (A) (A) (A) (A) (A)
                 (A) (A) (A) (A) (A) (A) (A) (A) (A) (A) (A) (A)
                 (A) (A) (A) (A) (A) (A) (A) (A) (A) (A) (A) (A)
                 (A) (A) (A) (A) (A) (A) (A) (A) (A) (A) (A) (A)
                 (A) (A) (A) (A) (A) (A) (A) (A) (A) (A) (A) (A)
                 (A) (A) (A) (A) (A) (A) (A) (A) (A) (A) (A) (A)
                 (A) (A) (A) (A) (A) (A) (A) (A) (A) (A) (A)
 The electronic state is 1-A.
 Alpha  occ. eigenvalues --  -10.20944 -10.20660 -10.20648 -10.20265 -10.20194
 Alpha  occ. eigenvalues --  -10.19566 -10.19450 -10.19298 -10.19252 -10.19010
 Alpha  occ. eigenvalues --  -10.18962 -10.18913 -10.18912 -10.18876 -10.18872
 Alpha  occ. eigenvalues --  -10.18806 -10.18794 -10.18785 -10.18776 -10.18753
 Alpha  occ. eigenvalues --  -10.18743 -10.18742  -0.88863  -0.87199  -0.84564
 Alpha  occ. eigenvalues --   -0.81888  -0.79734  -0.77575  -0.76583  -0.74216
 Alpha  occ. eigenvalues --   -0.73370  -0.70998  -0.70551  -0.64396  -0.63682
 Alpha  occ. eigenvalues --   -0.62390  -0.60873  -0.59945  -0.58738  -0.54663
 Alpha  occ. eigenvalues --   -0.53474  -0.52702  -0.51130  -0.49907  -0.48676
 Alpha  occ. eigenvalues --   -0.47798  -0.46984  -0.45250  -0.43874  -0.43738
 Alpha  occ. eigenvalues --   -0.43124  -0.42789  -0.41927  -0.41571  -0.40513
 Alpha  occ. eigenvalues --   -0.40122  -0.39794  -0.39663  -0.37717  -0.36930
 Alpha  occ. eigenvalues --   -0.36528  -0.35638  -0.34713  -0.33904  -0.33012
 Alpha  occ. eigenvalues --   -0.32462  -0.31300  -0.29302  -0.28122  -0.25717
 Alpha  occ. eigenvalues --   -0.24421  -0.21364  -0.20755
 Alpha virt. eigenvalues --   -0.06154  -0.05887  -0.02658  -0.01572   0.01256
 Alpha virt. eigenvalues --    0.02470   0.05806   0.06363   0.06700   0.06742
 Alpha virt. eigenvalues --    0.08003   0.08848   0.08974   0.10769   0.11067
 Alpha virt. eigenvalues --    0.12404   0.12662   0.13235   0.14352   0.15107
 Alpha virt. eigenvalues --    0.16693   0.17338   0.18358   0.20374   0.21369
 Alpha virt. eigenvalues --    0.22356   0.23896   0.24660   0.25487   0.26625
 Alpha virt. eigenvalues --    0.26955   0.27587   0.28222   0.28515   0.29413
 Alpha virt. eigenvalues --    0.30394   0.30792   0.31433   0.32111   0.32403
 Alpha virt. eigenvalues --    0.33189   0.34308   0.35036   0.35650   0.36177
 Alpha virt. eigenvalues --    0.36981   0.37950   0.38605   0.39435   0.40496
 Alpha virt. eigenvalues --    0.41727   0.42253   0.42559   0.43251   0.44591
 Alpha virt. eigenvalues --    0.44742   0.45264   0.45710   0.46084   0.46415
 Alpha virt. eigenvalues --    0.47114   0.47332   0.47857   0.48301   0.49031
 Alpha virt. eigenvalues --    0.49645   0.50058   0.50362   0.50675   0.50968
 Alpha virt. eigenvalues --    0.51489   0.52115   0.53928   0.54912   0.55292
 Alpha virt. eigenvalues --    0.55639   0.55785   0.56448   0.57678   0.58845
 Alpha virt. eigenvalues --    0.59319   0.60420   0.61907   0.63069   0.64642
 Alpha virt. eigenvalues --    0.65261   0.65589   0.65927   0.66634   0.67106
 Alpha virt. eigenvalues --    0.67605   0.68093   0.68772   0.68876   0.69395
 Alpha virt. eigenvalues --    0.69856   0.70644   0.71125   0.71191   0.72518
 Alpha virt. eigenvalues --    0.73126   0.73456   0.73798   0.74325   0.74534
 Alpha virt. eigenvalues --    0.75133   0.75959   0.76412   0.77219   0.78134
 Alpha virt. eigenvalues --    0.78936   0.79477   0.80203   0.80977   0.81369
 Alpha virt. eigenvalues --    0.81832   0.82826   0.83187   0.85568   0.86068
 Alpha virt. eigenvalues --    0.87739   0.88229   0.89291   0.89658   0.91561
 Alpha virt. eigenvalues --    0.92907   0.94776   0.97576   1.00714   1.05312
 Alpha virt. eigenvalues --    1.07542   1.09681   1.10575   1.12260   1.12962
 Alpha virt. eigenvalues --    1.13841   1.15402   1.17703   1.18429   1.21142
 Alpha virt. eigenvalues --    1.22401   1.24039   1.24529   1.25173   1.25791
 Alpha virt. eigenvalues --    1.27200   1.28543   1.30445   1.31337   1.33177
 Alpha virt. eigenvalues --    1.36341   1.36753   1.37534   1.39694   1.40687
 Alpha virt. eigenvalues --    1.43265   1.44725   1.45615   1.45721   1.46124
 Alpha virt. eigenvalues --    1.46716   1.48518   1.48861   1.49362   1.49703
 Alpha virt. eigenvalues --    1.50132   1.51413   1.51529   1.53024   1.54483
 Alpha virt. eigenvalues --    1.57807   1.68730   1.68965   1.70509   1.71192
 Alpha virt. eigenvalues --    1.72283   1.73675   1.74702   1.75925   1.76204
 Alpha virt. eigenvalues --    1.80006   1.81172   1.82670   1.83260   1.84059
 Alpha virt. eigenvalues --    1.85511   1.86191   1.86829   1.87889   1.89001
 Alpha virt. eigenvalues --    1.89220   1.92709   1.94007   1.94293   1.97361
 Alpha virt. eigenvalues --    1.99385   2.00125   2.01953   2.03861   2.06248
 Alpha virt. eigenvalues --    2.07357   2.08081   2.08779   2.08891   2.10562
 Alpha virt. eigenvalues --    2.12557   2.14708   2.15802   2.17211   2.17425
 Alpha virt. eigenvalues --    2.19282   2.19608   2.20421   2.23172   2.23599
 Alpha virt. eigenvalues --    2.24918   2.25948   2.26376   2.28832   2.29861
 Alpha virt. eigenvalues --    2.30990   2.31941   2.33697   2.34148   2.36315
 Alpha virt. eigenvalues --    2.36899   2.39163   2.40117   2.48175   2.48274
 Alpha virt. eigenvalues --    2.49607   2.54227   2.54929   2.56924   2.58050
 Alpha virt. eigenvalues --    2.58298   2.59647   2.60309   2.61970   2.62821
 Alpha virt. eigenvalues --    2.63270   2.65333   2.65655   2.66091   2.67126
 Alpha virt. eigenvalues --    2.68349   2.71941   2.73151   2.75075   2.79187
 Alpha virt. eigenvalues --    2.81694   2.82449   2.87142   2.89742   2.91171
 Alpha virt. eigenvalues --    2.99249   3.03530   3.05665   3.28284   3.31449
 Alpha virt. eigenvalues --    3.41286   3.42821   3.53110
          Condensed to atoms (all electrons):
               1          2          3          4          5          6
     1  C    5.239906   0.159119   0.144830  -0.154634   0.152370   0.196839
     2  C    0.159119   5.211714   0.249853   0.121725  -0.170699   0.149928
     3  C    0.144830   0.249853   5.436402   0.254783   0.027619  -0.175226
     4  C   -0.154634   0.121725   0.254783   5.536641   0.069934   0.042040
     5  C    0.152370  -0.170699   0.027619   0.069934   5.474481   0.218814
     6  C    0.196839   0.149928  -0.175226   0.042040   0.218814   5.466693
     7  C    0.022110  -0.002091   0.028944   0.017643   0.176171  -0.161798
     8  C   -0.001443   0.000169  -0.003996  -0.138744   0.147352   0.019717
     9  C    0.000012   0.000331   0.018520  -0.000234  -0.159491  -0.000936
    10  C   -0.004396   0.021588  -0.147171   0.245196   0.003348   0.026412
    11  C   -0.000000   0.000412  -0.030256  -0.141252   0.026194  -0.000352
    12  C    0.000007  -0.000093   0.001389   0.021639  -0.000092  -0.000002
    13  C   -0.000001   0.000006  -0.000132  -0.003118  -0.000051   0.000001
    14  C    0.000000  -0.000000  -0.000002   0.000050   0.000003  -0.000000
    15  C   -0.000000   0.000000   0.000000  -0.000001  -0.000000   0.000000
    16  C    0.000000  -0.000000  -0.000000   0.000002  -0.000002  -0.000000
    17  C   -0.000000  -0.000000   0.000000  -0.000000   0.000000   0.000000
    18  C   -0.000000   0.000000   0.000000   0.000000  -0.000000   0.000000
    19  C    0.000000  -0.000000  -0.000000  -0.000001   0.000003  -0.000000
    20  C   -0.000000   0.000000   0.000000   0.000021  -0.000046   0.000001
    21  C    0.000000  -0.000000   0.000006   0.000253  -0.000227  -0.000000
    22  C   -0.000001   0.000001   0.000095   0.022750  -0.002800   0.000052
    23  H    0.436686  -0.084862   0.015182  -0.001194   0.015732  -0.078948
    24  H   -0.086752   0.436798  -0.074829   0.015807  -0.001743   0.015685
    25  H    0.015822  -0.081252   0.416942  -0.049780   0.019304  -0.001852
    26  H   -0.083505   0.016360  -0.002340   0.016979  -0.080515   0.441248
    27  H    0.001006  -0.000065  -0.000349   0.016587  -0.090504  -0.020120
    28  H    0.000015  -0.000001   0.000040  -0.001215   0.016556  -0.000600
    29  H   -0.000070   0.001376   0.008738  -0.038385  -0.000892   0.000036
    30  H    0.000000  -0.000001   0.000007  -0.000412   0.000009  -0.000000
    31  H    0.000000  -0.000000  -0.000000  -0.000001   0.000000  -0.000000
    32  H    0.000000  -0.000000  -0.000000   0.000000   0.000000  -0.000000
    33  H    0.000000   0.000000  -0.000000   0.000000   0.000000  -0.000000
    34  H    0.000000  -0.000000  -0.000000  -0.000000   0.000000  -0.000000
    35  H    0.000000  -0.000000  -0.000000  -0.000000   0.000000  -0.000000
    36  H    0.000000   0.000000   0.000000   0.000063  -0.000218  -0.000003
               7          8          9         10         11         12
     1  C    0.022110  -0.001443   0.000012  -0.004396  -0.000000   0.000007
     2  C   -0.002091   0.000169   0.000331   0.021588   0.000412  -0.000093
     3  C    0.028944  -0.003996   0.018520  -0.147171  -0.030256   0.001389
     4  C    0.017643  -0.138744  -0.000234   0.245196  -0.141252   0.021639
     5  C    0.176171   0.147352  -0.159491   0.003348   0.026194  -0.000092
     6  C   -0.161798   0.019717  -0.000936   0.026412  -0.000352  -0.000002
     7  C    5.460171   0.247538   0.129315  -0.135849  -0.003543   0.000070
     8  C    0.247538   5.485082   0.181432   0.023582   0.030104  -0.003212
     9  C    0.129315   0.181432   5.498525   0.213943  -0.008332  -0.135835
    10  C   -0.135849   0.023582   0.213943   5.494963   0.199484   0.125130
    11  C   -0.003543   0.030104  -0.008332   0.199484   5.498631   0.219687
    12  C    0.000070  -0.003212  -0.135835   0.125130   0.219687   5.461263
    13  C   -0.000540   0.020491   0.013131  -0.146259   0.142517   0.187012
    14  C   -0.000002  -0.000218   0.024298  -0.000098   0.021987  -0.155358
    15  C    0.000001  -0.000057  -0.004143   0.000161  -0.001861   0.021832
    16  C    0.000047  -0.000773   0.012584  -0.000115   0.000176  -0.000266
    17  C   -0.000001   0.000021   0.000159   0.000002   0.000000   0.000013
    18  C    0.000002  -0.000033  -0.000153  -0.000002  -0.000000   0.000000
    19  C   -0.000077   0.000191   0.001120   0.000043   0.000001  -0.000001
    20  C    0.000248  -0.001832  -0.037183  -0.000875  -0.000062  -0.000153
    21  C    0.001567  -0.040573  -0.108142   0.011548  -0.004191   0.025482
    22  C    0.013831  -0.125540   0.313264   0.000902  -0.127161   0.019845
    23  H   -0.000556   0.000011  -0.000000   0.000055  -0.000000  -0.000000
    24  H    0.000027  -0.000001   0.000006  -0.000256   0.000002  -0.000001
    25  H   -0.000319  -0.000006  -0.001444  -0.039543   0.011335   0.001474
    26  H   -0.022591   0.001108  -0.000082  -0.000150   0.000009  -0.000000
    27  H    0.443526  -0.076627   0.016736  -0.001893   0.000037   0.000001
    28  H   -0.066866   0.424883  -0.074019   0.015387  -0.000265  -0.000072
    29  H   -0.000066  -0.000303   0.017003  -0.059061   0.422882  -0.076783
    30  H    0.000000   0.000024  -0.002016   0.017508  -0.077240   0.446332
    31  H   -0.000000   0.000009  -0.000142  -0.000118   0.001651  -0.022420
    32  H   -0.000000   0.000000   0.000048  -0.000001   0.000015  -0.000649
    33  H   -0.000000   0.000000   0.000007  -0.000000   0.000000  -0.000001
    34  H   -0.000000   0.000000   0.000000   0.000000   0.000000   0.000000
    35  H   -0.000004   0.000001   0.000019   0.000000  -0.000000  -0.000000
    36  H    0.003235   0.003589   0.001459  -0.000452  -0.000045   0.000049
              13         14         15         16         17         18
     1  C   -0.000001   0.000000  -0.000000   0.000000  -0.000000  -0.000000
     2  C    0.000006  -0.000000   0.000000  -0.000000  -0.000000   0.000000
     3  C   -0.000132  -0.000002   0.000000  -0.000000   0.000000   0.000000
     4  C   -0.003118   0.000050  -0.000001   0.000002  -0.000000   0.000000
     5  C   -0.000051   0.000003  -0.000000  -0.000002   0.000000  -0.000000
     6  C    0.000001  -0.000000   0.000000  -0.000000   0.000000   0.000000
     7  C   -0.000540  -0.000002   0.000001   0.000047  -0.000001   0.000002
     8  C    0.020491  -0.000218  -0.000057  -0.000773   0.000021  -0.000033
     9  C    0.013131   0.024298  -0.004143   0.012584   0.000159  -0.000153
    10  C   -0.146259  -0.000098   0.000161  -0.000115   0.000002  -0.000002
    11  C    0.142517   0.021987  -0.001861   0.000176   0.000000  -0.000000
    12  C    0.187012  -0.155358   0.021832  -0.000266   0.000013   0.000000
    13  C    5.402028   0.169026   0.149744  -0.147293  -0.001360   0.000288
    14  C    0.169026   5.507532   0.174562   0.145926   0.020220  -0.001813
    15  C    0.149744   0.174562   5.515958   0.167462  -0.157794   0.023188
    16  C   -0.147293   0.145926   0.167462   5.376285   0.233394   0.142576
    17  C   -0.001360   0.020220  -0.157794   0.233394   5.459050   0.196322
    18  C    0.000288  -0.001813   0.023188   0.142576   0.196322   5.235211
    19  C   -0.000469   0.000399  -0.002240  -0.158727   0.144844   0.168477
    20  C    0.018015  -0.003664   0.029321   0.043190  -0.177706   0.140805
    21  C    0.003676  -0.123871   0.013946   0.137701   0.042262  -0.147517
    22  C    0.182397   0.018853  -0.124354  -0.000853   0.024204  -0.003555
    23  H    0.000000  -0.000000   0.000000   0.000000   0.000000   0.000000
    24  H    0.000000  -0.000000  -0.000000  -0.000000   0.000000   0.000000
    25  H   -0.000065   0.000000  -0.000000   0.000000   0.000000  -0.000000
    26  H    0.000000  -0.000000   0.000000  -0.000000   0.000000  -0.000000
    27  H    0.000005  -0.000000   0.000000   0.000000  -0.000000   0.000000
    28  H   -0.000284   0.000053  -0.000048  -0.000439   0.000064  -0.000219
    29  H    0.017138  -0.000703   0.000018  -0.000002  -0.000000   0.000000
    30  H   -0.091036  -0.022352   0.001699  -0.000137  -0.000001   0.000000
    31  H   -0.088456   0.446473  -0.080706   0.017327  -0.000621   0.000013
    32  H    0.016793  -0.079047   0.442523  -0.088484  -0.019751   0.001234
    33  H   -0.000113   0.001478  -0.023419  -0.079921   0.442566  -0.083043
    34  H   -0.000001   0.000011  -0.000548   0.015926  -0.079495   0.436487
    35  H    0.000002   0.000000   0.000020  -0.001760   0.015825  -0.086984
    36  H   -0.000517  -0.000058  -0.000261   0.016481  -0.001559   0.015256
              19         20         21         22         23         24
     1  C    0.000000  -0.000000   0.000000  -0.000001   0.436686  -0.086752
     2  C   -0.000000   0.000000  -0.000000   0.000001  -0.084862   0.436798
     3  C   -0.000000   0.000000   0.000006   0.000095   0.015182  -0.074829
     4  C   -0.000001   0.000021   0.000253   0.022750  -0.001194   0.015807
     5  C    0.000003  -0.000046  -0.000227  -0.002800   0.015732  -0.001743
     6  C   -0.000000   0.000001  -0.000000   0.000052  -0.078948   0.015685
     7  C   -0.000077   0.000248   0.001567   0.013831  -0.000556   0.000027
     8  C    0.000191  -0.001832  -0.040573  -0.125540   0.000011  -0.000001
     9  C    0.001120  -0.037183  -0.108142   0.313264  -0.000000   0.000006
    10  C    0.000043  -0.000875   0.011548   0.000902   0.000055  -0.000256
    11  C    0.000001  -0.000062  -0.004191  -0.127161  -0.000000   0.000002
    12  C   -0.000001  -0.000153   0.025482   0.019845  -0.000000  -0.000001
    13  C   -0.000469   0.018015   0.003676   0.182397   0.000000   0.000000
    14  C    0.000399  -0.003664  -0.123871   0.018853  -0.000000  -0.000000
    15  C   -0.002240   0.029321   0.013946  -0.124354   0.000000  -0.000000
    16  C   -0.158727   0.043190   0.137701  -0.000853   0.000000  -0.000000
    17  C    0.144844  -0.177706   0.042262   0.024204   0.000000   0.000000
    18  C    0.168477   0.140805  -0.147517  -0.003555   0.000000   0.000000
    19  C    5.191491   0.262540   0.118025   0.014346  -0.000000   0.000000
    20  C    0.262540   5.439241   0.238920  -0.126915  -0.000000   0.000000
    21  C    0.118025   0.238920   5.447978   0.294100  -0.000000   0.000000
    22  C    0.014346  -0.126915   0.294100   5.500708   0.000000  -0.000000
    23  H   -0.000000  -0.000000  -0.000000   0.000000   0.672589  -0.012306
    24  H    0.000000   0.000000   0.000000  -0.000000  -0.012306   0.671123
    25  H    0.000000  -0.000000   0.000000   0.000019  -0.000354  -0.013581
    26  H   -0.000000   0.000000  -0.000000  -0.000001  -0.012540  -0.000344
    27  H   -0.000005   0.000016   0.000019  -0.000329  -0.000019  -0.000001
    28  H    0.003067   0.003838   0.000435  -0.020957  -0.000000   0.000000
    29  H   -0.000000   0.000000   0.000047  -0.001241  -0.000000   0.000034
    30  H   -0.000000   0.000010  -0.000150   0.015482  -0.000000  -0.000000
    31  H   -0.000001   0.000037  -0.001796   0.015042  -0.000000  -0.000000
    32  H   -0.000093  -0.000295   0.015270  -0.001360  -0.000000  -0.000000
    33  H    0.016329  -0.002356   0.016094  -0.000075   0.000000  -0.000000
    34  H   -0.084657   0.015228  -0.001226   0.000044  -0.000000   0.000000
    35  H    0.437372  -0.075214   0.015813  -0.000239  -0.000000  -0.000000
    36  H   -0.070368   0.421449  -0.066353  -0.021402   0.000000  -0.000000
              25         26         27         28         29         30
     1  C    0.015822  -0.083505   0.001006   0.000015  -0.000070   0.000000
     2  C   -0.081252   0.016360  -0.000065  -0.000001   0.001376  -0.000001
     3  C    0.416942  -0.002340  -0.000349   0.000040   0.008738   0.000007
     4  C   -0.049780   0.016979   0.016587  -0.001215  -0.038385  -0.000412
     5  C    0.019304  -0.080515  -0.090504   0.016556  -0.000892   0.000009
     6  C   -0.001852   0.441248  -0.020120  -0.000600   0.000036  -0.000000
     7  C   -0.000319  -0.022591   0.443526  -0.066866  -0.000066   0.000000
     8  C   -0.000006   0.001108  -0.076627   0.424883  -0.000303   0.000024
     9  C   -0.001444  -0.000082   0.016736  -0.074019   0.017003  -0.002016
    10  C   -0.039543  -0.000150  -0.001893   0.015387  -0.059061   0.017508
    11  C    0.011335   0.000009   0.000037  -0.000265   0.422882  -0.077240
    12  C    0.001474  -0.000000   0.000001  -0.000072  -0.076783   0.446332
    13  C   -0.000065   0.000000   0.000005  -0.000284   0.017138  -0.091036
    14  C    0.000000  -0.000000  -0.000000   0.000053  -0.000703  -0.022352
    15  C   -0.000000   0.000000   0.000000  -0.000048   0.000018   0.001699
    16  C    0.000000  -0.000000   0.000000  -0.000439  -0.000002  -0.000137
    17  C    0.000000   0.000000  -0.000000   0.000064  -0.000000  -0.000001
    18  C   -0.000000  -0.000000   0.000000  -0.000219   0.000000   0.000000
    19  C    0.000000  -0.000000  -0.000005   0.003067  -0.000000  -0.000000
    20  C   -0.000000   0.000000   0.000016   0.003838   0.000000   0.000010
    21  C    0.000000  -0.000000   0.000019   0.000435   0.000047  -0.000150
    22  C    0.000019  -0.000001  -0.000329  -0.020957  -0.001241   0.015482
    23  H   -0.000354  -0.012540  -0.000019  -0.000000  -0.000000  -0.000000
    24  H   -0.013581  -0.000344  -0.000001   0.000000   0.000034  -0.000000
    25  H    0.679618   0.000029   0.000012  -0.000000  -0.000001   0.000041
    26  H    0.000029   0.678925   0.006612  -0.000021   0.000001   0.000000
    27  H    0.000012   0.006612   0.681220  -0.014014  -0.000000   0.000000
    28  H   -0.000000  -0.000021  -0.014014   0.662742   0.000011  -0.000001
    29  H   -0.000001   0.000001  -0.000000   0.000011   0.684611  -0.014323
    30  H    0.000041   0.000000   0.000000  -0.000001  -0.014323   0.682505
    31  H    0.000000   0.000000   0.000000   0.000000  -0.000036   0.005770
    32  H   -0.000000  -0.000000  -0.000000  -0.000000  -0.000000  -0.000025
    33  H   -0.000000  -0.000000  -0.000000  -0.000000  -0.000000  -0.000000
    34  H    0.000000  -0.000000  -0.000000  -0.000001   0.000000  -0.000000
    35  H    0.000000   0.000000  -0.000000   0.000069  -0.000000   0.000000
    36  H    0.000000  -0.000000   0.000069  -0.002255   0.000000   0.000000
              31         32         33         34         35         36
     1  C    0.000000   0.000000   0.000000   0.000000   0.000000   0.000000
     2  C   -0.000000  -0.000000   0.000000  -0.000000  -0.000000   0.000000
     3  C   -0.000000  -0.000000  -0.000000  -0.000000  -0.000000   0.000000
     4  C   -0.000001   0.000000   0.000000  -0.000000  -0.000000   0.000063
     5  C    0.000000   0.000000   0.000000   0.000000   0.000000  -0.000218
     6  C   -0.000000  -0.000000  -0.000000  -0.000000  -0.000000  -0.000003
     7  C   -0.000000  -0.000000  -0.000000  -0.000000  -0.000004   0.003235
     8  C    0.000009   0.000000   0.000000   0.000000   0.000001   0.003589
     9  C   -0.000142   0.000048   0.000007   0.000000   0.000019   0.001459
    10  C   -0.000118  -0.000001  -0.000000   0.000000   0.000000  -0.000452
    11  C    0.001651   0.000015   0.000000   0.000000  -0.000000  -0.000045
    12  C   -0.022420  -0.000649  -0.000001   0.000000  -0.000000   0.000049
    13  C   -0.088456   0.016793  -0.000113  -0.000001   0.000002  -0.000517
    14  C    0.446473  -0.079047   0.001478   0.000011   0.000000  -0.000058
    15  C   -0.080706   0.442523  -0.023419  -0.000548   0.000020  -0.000261
    16  C    0.017327  -0.088484  -0.079921   0.015926  -0.001760   0.016481
    17  C   -0.000621  -0.019751   0.442566  -0.079495   0.015825  -0.001559
    18  C    0.000013   0.001234  -0.083043   0.436487  -0.086984   0.015256
    19  C   -0.000001  -0.000093   0.016329  -0.084657   0.437372  -0.070368
    20  C    0.000037  -0.000295  -0.002356   0.015228  -0.075214   0.421449
    21  C   -0.001796   0.015270   0.016094  -0.001226   0.015813  -0.066353
    22  C    0.015042  -0.001360  -0.000075   0.000044  -0.000239  -0.021402
    23  H   -0.000000  -0.000000   0.000000  -0.000000  -0.000000   0.000000
    24  H   -0.000000  -0.000000  -0.000000   0.000000  -0.000000  -0.000000
    25  H    0.000000  -0.000000  -0.000000   0.000000   0.000000   0.000000
    26  H    0.000000  -0.000000  -0.000000  -0.000000   0.000000  -0.000000
    27  H    0.000000  -0.000000  -0.000000  -0.000000  -0.000000   0.000069
    28  H    0.000000  -0.000000  -0.000000  -0.000001   0.000069  -0.002255
    29  H   -0.000036  -0.000000  -0.000000   0.000000  -0.000000   0.000000
    30  H    0.005770  -0.000025  -0.000000  -0.000000   0.000000   0.000000
    31  H    0.680545  -0.013057  -0.000019  -0.000000   0.000000  -0.000001
    32  H   -0.013057   0.681318   0.006242  -0.000022  -0.000001   0.000012
    33  H   -0.000019   0.006242   0.676736  -0.012597  -0.000358   0.000028
    34  H   -0.000000  -0.000022  -0.012597   0.673333  -0.012290  -0.000338
    35  H    0.000000  -0.000001  -0.000358  -0.012290   0.670084  -0.013405
    36  H   -0.000001   0.000012   0.000028  -0.000338  -0.013405   0.659167
 Mulliken charges:
               1
     1  C   -0.037919
     2  C   -0.030316
     3  C   -0.169046
     4  C    0.146858
     5  C    0.159390
     6  C   -0.137627
     7  C   -0.150143
     8  C   -0.191944
     9  C    0.090241
    10  C    0.136987
    11  C   -0.180564
    12  C   -0.136286
    13  C    0.157425
    14  C   -0.143686
    15  C   -0.145006
    16  C    0.169696
    17  C   -0.140660
    18  C   -0.036542
    19  C   -0.041611
    20  C   -0.186578
    21  C    0.110905
    22  C    0.120849
    23  H    0.050524
    24  H    0.050331
    25  H    0.043600
    26  H    0.040818
    27  H    0.038079
    28  H    0.054115
    29  H    0.039971
    30  H    0.038308
    31  H    0.040504
    32  H    0.039331
    33  H    0.042421
    34  H    0.050146
    35  H    0.051048
    36  H    0.056380
 Sum of Mulliken charges =  -0.00000
 Mulliken charges with hydrogens summed into heavy atoms:
               1
     1  C    0.012605
     2  C    0.020015
     3  C   -0.125446
     4  C    0.146858
     5  C    0.159390
     6  C   -0.096808
     7  C   -0.112064
     8  C   -0.137829
     9  C    0.090241
    10  C    0.136987
    11  C   -0.140593
    12  C   -0.097978
    13  C    0.157425
    14  C   -0.103182
    15  C   -0.105674
    16  C    0.169696
    17  C   -0.098239
    18  C    0.013603
    19  C    0.009437
    20  C   -0.130198
    21  C    0.110905
    22  C    0.120849
 Electronic spatial extent (au):  <R**2>=           7197.2199
 Charge=             -0.0000 electrons
 Dipole moment (field-independent basis, Debye):
    X=             -0.0325    Y=              0.0792    Z=              0.0402  Tot=              0.0946
 Quadrupole moment (field-independent basis, Debye-Ang):
   XX=           -110.1820   YY=           -112.2429   ZZ=           -133.8459
   XY=             -0.0658   XZ=              1.0579   YZ=              0.6178
 Traceless Quadrupole moment (field-independent basis, Debye-Ang):
   XX=              8.5749   YY=              6.5141   ZZ=            -15.0890
   XY=             -0.0658   XZ=              1.0579   YZ=              0.6178
 Octapole moment (field-independent basis, Debye-Ang**2):
  XXX=              2.1384  YYY=              2.5770  ZZZ=             -0.0564  XYY=             -1.2893
  XXY=             -3.0140  XXZ=              2.5286  XZZ=              0.1005  YZZ=             -1.5901
  YYZ=              0.9803  XYZ=             11.7898
 Hexadecapole moment (field-independent basis, Debye-Ang**3):
 XXXX=          -7147.8311 YYYY=          -1875.7013 ZZZZ=           -208.1080 XXXY=              3.9590
 XXXZ=             58.4672 YYYX=              0.6072 YYYZ=             -0.1852 ZZZX=              0.4244
 ZZZY=              0.8465 XXYY=          -1514.4837 XXZZ=          -1470.5328 YYZZ=           -397.7888
 XXYZ=              4.6804 YYXZ=            -12.3700 ZZXY=              2.1988
 N-N= 1.553502164073D+03 E-N=-5.064713086825D+03  KE= 8.374677262001D+02
   1 Symmetry operations used in ECPInt.
 ECPInt:  NShTT=   12880 NPrTT=   51688 LenC2=   11753 LenP2D=   32201.
 LDataN:  DoStor=T MaxTD1= 5 Len=  102
 Calling FoFJK, ICntrl=      2127 FMM=F ISym2X=0 I1Cent= 0 IOpClX= 0 NMat=1 NMatS=1 NMatT=0.
 ***** Axes restored to original set *****
 -------------------------------------------------------------------
 Center     Atomic                   Forces (Hartrees/Bohr)
 Number     Number              X              Y              Z
 -------------------------------------------------------------------
      1        6           0.009238641   -0.019335088    0.005214943
      2        6           0.016944498    0.018840679   -0.001418233
      3        6          -0.006442934    0.000868394   -0.000713228
      4        6          -0.010803938    0.007817787   -0.002065343
      5        6          -0.016014205   -0.005883785   -0.003092452
      6        6          -0.021080112    0.004170133   -0.003987021
      7        6           0.049799261    0.005481339    0.006204573
      8        6          -0.014258983   -0.032161882    0.004566492
      9        6           0.009765598    0.002270767   -0.003051998
     10        6           0.005099067    0.002671330   -0.002201141
     11        6           0.012324532    0.024999080    0.000655655
     12        6          -0.043109180   -0.004729514   -0.004174200
     13        6          -0.000085583   -0.008679091   -0.000810726
     14        6           0.047222630   -0.000626915    0.004349502
     15        6          -0.026429752    0.041329051    0.001210794
     16        6           0.008201821   -0.009475157    0.002834623
     17        6           0.007787523   -0.018924330   -0.003522927
     18        6           0.010743655    0.016636641    0.005509597
     19        6          -0.024703403    0.002959356   -0.002525779
     20        6           0.001973980   -0.010474825   -0.001950861
     21        6          -0.011758490   -0.017324179   -0.001718707
     22        6          -0.004339562   -0.003743236   -0.000374912
     23        1          -0.004574277   -0.003278913    0.000028842
     24        1          -0.003170999    0.003750019   -0.001317575
     25        1           0.003005293    0.004633987   -0.000292681
     26        1           0.003579625   -0.003871419    0.001101851
     27        1          -0.001784381   -0.003248423    0.001795471
     28        1           0.004963884    0.000556558   -0.001728189
     29        1          -0.005686671   -0.000523452   -0.001283714
     30        1           0.003014772    0.003039080    0.000582108
     31        1          -0.003996163    0.003286673   -0.000273334
     32        1           0.005044124   -0.000146104    0.001210410
     33        1           0.000410293    0.005586818    0.000875127
     34        1           0.005459703   -0.001816371    0.000667107
     35        1          -0.001209939   -0.004582909   -0.002041928
     36        1          -0.005130330   -0.000072100    0.001737853
 -------------------------------------------------------------------
 Cartesian Forces:  Max     0.049799261 RMS     0.012218605

 GradGradGradGradGradGradGradGradGradGradGradGradGradGradGradGradGradGrad
 Berny optimization.
 FormGI is forming the generalized inverse of G from B-inverse, IUseBI=4.
 Internal  Forces:  Max     0.034966615 RMS     0.007134511
 Search for a local minimum.
 Step number   1 out of a maximum of  216
 All quantities printed in internal units (Hartrees-Bohrs-Radians)
 Mixed Optimization -- RFO/linear search
 Second derivative matrix not updated -- first step.
 ITU=  0
     Eigenvalues ---    0.01469   0.01493   0.01606   0.01686   0.01735
     Eigenvalues ---    0.01755   0.01810   0.01878   0.01926   0.01930
     Eigenvalues ---    0.01971   0.01983   0.01991   0.02038   0.02051
     Eigenvalues ---    0.02060   0.02076   0.02097   0.02112   0.02130
     Eigenvalues ---    0.02134   0.02164   0.02186   0.02192   0.02194
     Eigenvalues ---    0.02199   0.02201   0.02204   0.02220   0.02224
     Eigenvalues ---    0.02250   0.02253   0.02277   0.15962   0.15964
     Eigenvalues ---    0.15967   0.15969   0.15985   0.15995   0.15998
     Eigenvalues ---    0.15998   0.15998   0.15999   0.15999   0.16000
     Eigenvalues ---    0.16000   0.16000   0.21994   0.22000   0.22325
     Eigenvalues ---    0.22393   0.22547   0.22692   0.22729   0.24115
     Eigenvalues ---    0.24299   0.24403   0.24575   0.24657   0.24674
     Eigenvalues ---    0.24804   0.24933   0.34712   0.34973   0.34974
     Eigenvalues ---    0.34995   0.35015   0.35049   0.35052   0.35081
     Eigenvalues ---    0.35187   0.35192   0.35254   0.35266   0.35269
     Eigenvalues ---    0.35292   0.35304   0.35307   0.36555   0.37246
     Eigenvalues ---    0.37974   0.39465   0.39991   0.40153   0.40483
     Eigenvalues ---    0.42757   0.43025   0.43670   0.44107   0.44941
     Eigenvalues ---    0.45102   0.45162   0.45267   0.45546   0.45955
     Eigenvalues ---    0.46068   0.46258   0.46850   0.46961   0.47408
     Eigenvalues ---    0.47527   0.47833
 RFO step:  Lambda=-2.67950194D-02 EMin= 1.46903267D-02
 Linear search not attempted -- first point.
 Iteration  1 RMS(Cart)=  0.08296844 RMS(Int)=  0.00097353
 Iteration  2 RMS(Cart)=  0.00220618 RMS(Int)=  0.00008596
 Iteration  3 RMS(Cart)=  0.00000149 RMS(Int)=  0.00008596
 Iteration  4 RMS(Cart)=  0.00000000 RMS(Int)=  0.00008596
 Variable       Old X    -DE/DX   Delta X   Delta X   Delta X     New X
                                 (Linear)    (Quad)   (Total)
    R1        2.61743   0.02350   0.00000   0.04572   0.04570   2.66313
    R2        2.62856  -0.00527   0.00000  -0.01005  -0.01002   2.61854
    R3        2.05264   0.00560   0.00000   0.01476   0.01476   2.06740
    R4        2.64404  -0.01045   0.00000  -0.02260  -0.02266   2.62138
    R5        2.05365   0.00480   0.00000   0.01268   0.01268   2.06632
    R6        2.68700  -0.00548   0.00000  -0.01283  -0.01286   2.67414
    R7        2.05245   0.00449   0.00000   0.01184   0.01184   2.06429
    R8        2.66906   0.01691   0.00000   0.03865   0.03868   2.70774
    R9        2.73602  -0.00019   0.00000  -0.00041  -0.00042   2.73560
   R10        2.65784   0.00953   0.00000   0.02124   0.02129   2.67914
   R11        2.62358   0.03407   0.00000   0.06912   0.06914   2.69272
   R12        2.05651   0.00388   0.00000   0.01028   0.01028   2.06679
   R13        2.63691  -0.02108   0.00000  -0.04303  -0.04301   2.59390
   R14        2.05596   0.00363   0.00000   0.00962   0.00962   2.06558
   R15        2.66543   0.01681   0.00000   0.03455   0.03455   2.69998
   R16        2.05203   0.00299   0.00000   0.00788   0.00788   2.05991
   R17        2.69815   0.00516   0.00000   0.00875   0.00866   2.70681
   R18        2.77280  -0.01667   0.00000  -0.04445  -0.04449   2.72830
   R19        2.65195   0.01456   0.00000   0.03028   0.03024   2.68219
   R20        2.62540  -0.01463   0.00000  -0.02823  -0.02821   2.59719
   R21        2.05179   0.00442   0.00000   0.01165   0.01165   2.06343
   R22        2.62844   0.02871   0.00000   0.05891   0.05897   2.68742
   R23        2.05718   0.00304   0.00000   0.00807   0.00807   2.06525
   R24        2.64021   0.02964   0.00000   0.06088   0.06093   2.70114
   R25        2.67829   0.00857   0.00000   0.01845   0.01857   2.69685
   R26        2.61920  -0.01587   0.00000  -0.03048  -0.03048   2.58872
   R27        2.05719   0.00336   0.00000   0.00894   0.00894   2.06613
   R28        2.62642   0.03497   0.00000   0.07072   0.07066   2.69708
   R29        2.05543   0.00420   0.00000   0.01113   0.01113   2.06656
   R30        2.65767   0.00910   0.00000   0.01995   0.02000   2.67766
   R31        2.68750   0.01338   0.00000   0.02990   0.02988   2.71739
   R32        2.62549  -0.00290   0.00000  -0.00518  -0.00517   2.62032
   R33        2.05683   0.00360   0.00000   0.00954   0.00954   2.06637
   R34        2.61317   0.02363   0.00000   0.04604   0.04601   2.65918
   R35        2.05241   0.00573   0.00000   0.01509   0.01509   2.06750
   R36        2.64599  -0.01040   0.00000  -0.02222  -0.02228   2.62372
   R37        2.05372   0.00478   0.00000   0.01263   0.01263   2.06635
   R38        2.68453  -0.00202   0.00000  -0.00519  -0.00521   2.67932
   R39        2.05184   0.00334   0.00000   0.00879   0.00879   2.06063
   R40        2.77341  -0.01257   0.00000  -0.03368  -0.03367   2.73974
    A1        2.08293   0.00093   0.00000   0.00479   0.00479   2.08772
    A2        2.10124   0.00013   0.00000   0.00078   0.00078   2.10203
    A3        2.09901  -0.00106   0.00000  -0.00557  -0.00557   2.09344
    A4        2.09200   0.00343   0.00000   0.01184   0.01175   2.10375
    A5        2.09756  -0.00000   0.00000   0.00325   0.00329   2.10086
    A6        2.09362  -0.00343   0.00000  -0.01509  -0.01504   2.07858
    A7        2.14042  -0.00480   0.00000  -0.02151  -0.02161   2.11881
    A8        2.03283   0.00570   0.00000   0.02844   0.02849   2.06132
    A9        2.10985  -0.00091   0.00000  -0.00694  -0.00689   2.10296
   A10        2.02291   0.00943   0.00000   0.03341   0.03342   2.05633
   A11        2.18018  -0.00958   0.00000  -0.03656  -0.03653   2.14365
   A12        2.08008   0.00016   0.00000   0.00316   0.00311   2.08319
   A13        2.11547  -0.00685   0.00000  -0.02388  -0.02380   2.09168
   A14        2.08267  -0.00268   0.00000  -0.00604  -0.00610   2.07657
   A15        2.08480   0.00954   0.00000   0.02990   0.02987   2.11467
   A16        2.11263  -0.00215   0.00000  -0.00465  -0.00457   2.10806
   A17        2.06937   0.00492   0.00000   0.02291   0.02287   2.09224
   A18        2.10119  -0.00277   0.00000  -0.01826  -0.01830   2.08288
   A19        2.10599   0.00131   0.00000   0.00842   0.00841   2.11440
   A20        2.10764  -0.00222   0.00000  -0.01258  -0.01258   2.09507
   A21        2.06949   0.00091   0.00000   0.00419   0.00419   2.07368
   A22        2.15628  -0.00544   0.00000  -0.02476  -0.02480   2.13149
   A23        2.01912   0.00645   0.00000   0.03244   0.03245   2.05157
[...]
 4,0.00368220,-0.00000213,-0.00000028,0.00000094,-0.00000311,0.00000055
 ,0.00000155,-0.00000023,0.00000423,0.00000355,0.00000037,-0.00000057,0
 .00000091,-0.00000632,-0.00001385,-0.00001876,0.00000045,0.00000990,0.
 00000727,-0.00001659,0.00000747,0.00011225,-0.00018190,0.00016479,0.00
 015587,0.00379212,0.02142088,0.02748752,-0.00000967,-0.00000115,0.0000
 0017,-0.00000443,-0.00000402,-0.00000226,-0.00001804,-0.00001359,-0.00
 000341,0.00001964,-0.00000816,-0.00000639,0.00000165,-0.00000824,0.000
 00462,-0.00000368,0.00001383,-0.00000455,0.00001274,-0.00004041,0.0000
 1304,-0.00005995,0.00000124,-0.00001108,0.00009623,-0.00003320,0.00013
 749,0.00003373,0.00009097,0.00000265,-0.00034206,0.00030692,0.00002399
 ,-0.00061926,-0.00115004,-0.00003965,-0.00197006,0.00417113,-0.0016161
 8,-0.01853652,-0.01661293,-0.00474885,-0.25407983,-0.11854642,-0.04416
 196,0.00306534,0.00234675,0.00010288,0.00053511,0.00181902,0.00078476,
 0.00011823,-0.00038442,-0.00009138,0.00027814,0.00009190,0.00011517,-0
 .00005457,0.00023009,0.00004981,0.00079217,0.00081256,-0.00024937,0.00
 023417,0.00039117,0.00003984,-0.00000712,-0.00000391,0.00000032,-0.000
 00775,0.00000178,-0.00000244,0.00001239,-0.00000335,0.00000633,0.00000
 052,-0.00000686,0.00000082,-0.00000864,-0.00001024,0.00000020,0.000008
 98,0.00000219,0.00000069,-0.00010607,-0.00006107,-0.00002627,0.0000231
 9,0.00005953,-0.00001920,0.00102982,0.00010375,0.00099908,0.26923069,0
 .00001269,-0.00000750,0.00000443,0.00000055,0.00002159,-0.00000651,-0.
 00001462,-0.00000030,0.00000088,0.00002147,0.00003176,-0.00001268,0.00
 003570,-0.00002249,0.00000868,-0.00001412,0.00000169,-0.00000020,-0.00
 002906,0.00000986,-0.00000918,0.00005308,0.00000930,0.00001582,-0.0001
 6627,0.00008331,0.00010169,-0.00001330,-0.00015937,-0.00000229,0.00021
 270,0.00002391,0.00007799,0.00025742,0.00057612,-0.00002829,0.00280372
 ,-0.00122171,-0.00043391,0.01449794,0.01174879,0.00278277,-0.11867331,
 -0.12958410,-0.02716013,-0.02627677,-0.01133620,-0.00510198,-0.0022567
 5,0.00110183,0.00048702,0.00032625,0.00010986,0.00004681,0.00003731,0.
 00009691,0.00007311,-0.00165092,-0.00022982,-0.00017108,0.00241766,-0.
 00446065,-0.00120285,0.00074571,-0.00038492,-0.00000093,-0.00000082,0.
 00000011,-0.00000023,0.00000012,0.00000011,-0.00000032,-0.00000349,0.0
 0000400,-0.00000021,0.00000154,0.00000092,-0.00000082,0.00000042,0.000
 00054,-0.00000316,0.00001388,0.00003078,-0.00002264,0.00006486,0.00003
 091,0.00001985,-0.00000882,-0.00002112,-0.00001762,-0.00060336,0.00090
 539,0.00048305,0.12673519,0.13319055,-0.00002920,0.00005189,-0.0000161
 6,-0.00003512,-0.00004474,0.00002310,0.00005405,0.00000165,-0.00000212
 ,-0.00008698,-0.00003529,0.00003051,-0.00009496,0.00003915,-0.00003710
 ,0.00006476,0.00000532,0.00001009,0.00013324,0.00002313,0.00002955,-0.
 00005963,-0.00006267,0.00007175,0.00015667,0.00005532,-0.00082034,-0.0
 0002387,0.00026449,0.00011923,-0.00017012,-0.00016371,-0.00056980,0.00
 029364,-0.00023129,0.00022798,-0.00154798,0.00068374,0.00880458,-0.002
 31297,-0.00197177,0.00447271,-0.04361903,-0.02633980,-0.04704345,-0.00
 372094,-0.00251038,0.00264197,0.00004139,0.00071626,-0.00235170,0.0001
 1776,0.00005834,-0.00004771,0.00003970,-0.00000569,-0.00008389,-0.0002
 8846,0.00008555,0.00008428,0.00118055,-0.00130477,0.00395034,-0.000056
 70,0.00017035,-0.00035621,0.00000013,-0.00000107,-0.00000539,-0.000000
 88,-0.00000042,0.00000125,0.00000692,-0.00000613,-0.00001370,0.0000004
 1,-0.00000001,0.00000167,0.00000301,0.00000335,0.00000641,0.00000323,-
 0.00000119,-0.00001186,-0.00002970,-0.00001800,-0.00001921,-0.00002664
 ,0.00000992,0.00014715,0.00094167,0.00050215,-0.00531589,0.04884041,0.
 03021662,0.03571372,-0.00000181,0.00000009,0.00000087,-0.00000947,0.00
 000720,-0.00000243,-0.00001390,-0.00002097,0.00000205,-0.00001285,0.00
 003850,-0.00001687,0.00001537,-0.00001036,0.00000251,-0.00000554,0.000
 01057,-0.00000097,-0.00000217,-0.00002205,0.00000104,0.00001479,0.0000
 2536,-0.00000127,-0.00025317,0.00035453,-0.00000563,-0.00006482,-0.000
 09650,0.00003287,-0.00002245,0.00003539,-0.00000550,0.00006565,0.00004
 485,-0.00000337,0.00014185,-0.00009819,0.00004791,0.00015066,0.0003795
 5,0.00010855,0.00087339,-0.00249885,0.00012857,-0.01931276,-0.01632206
 ,-0.00606886,-0.24218898,-0.12063226,-0.04861201,0.00570112,0.00371364
 ,0.00111514,0.00138747,0.00077390,-0.00024887,0.00024491,0.00076348,0.
 00032874,-0.00260486,0.00407414,0.00010920,-0.00057378,-0.00130203,-0.
 00019351,-0.00000450,-0.00000222,-0.00000110,-0.00000560,0.00000045,-0
 .00000156,0.00000459,0.00000238,-0.00000009,0.00000083,-0.00000381,0.0
 0000028,-0.00000738,-0.00000695,0.00000008,0.00000699,0.00001763,0.000
 00072,-0.00000144,0.00000663,0.00000260,-0.00001828,0.00002468,-0.0000
 0528,-0.00002510,0.00002773,-0.00002449,0.00029767,0.00130568,0.000182
 83,0.25539276,-0.00000393,-0.00000143,0.00000100,-0.00000061,-0.000000
 99,-0.00000154,-0.00000260,-0.00000174,0.00000025,0.00002262,-0.000003
 08,0.00002081,0.00000446,-0.00001297,0.00000271,-0.00000348,0.00000888
 ,-0.00000369,-0.00000652,0.00000699,0.00000311,0.00000435,-0.00001183,
 0.00004325,0.00008203,-0.00012171,-0.00007863,0.00004810,0.00000087,-0
 .00000236,0.00001138,0.00005210,-0.00000259,-0.00008104,-0.00004892,-0
 .00000637,0.00021284,0.00020702,0.00005338,-0.00034885,0.00018270,-0.0
 0004660,0.00187443,0.00056222,0.00125281,0.01113616,0.00944946,0.00246
 738,-0.12072639,-0.13743956,-0.03475106,-0.02690050,-0.01092195,-0.006
 23441,0.00218386,-0.00449674,-0.00281769,0.00087138,-0.00062099,0.0001
 5511,0.00259838,-0.00036701,-0.00110044,0.00062045,0.00042240,-0.00000
 454,-0.00000326,-0.00000143,-0.00000029,-0.00000262,0.00000144,-0.0000
 0122,0.00000260,0.00000101,0.00000047,0.00000146,-0.00000242,-0.000000
 25,0.00000219,-0.00000168,-0.00000274,-0.00000233,0.00000424,-0.000019
 24,-0.00000607,-0.00000069,-0.00000086,0.00000714,0.00000172,-0.000002
 01,-0.00003663,0.00003315,-0.00006125,-0.00024237,-0.00013621,-0.00009
 146,0.12986450,0.14290045,0.00000055,-0.00000564,-0.00000025,0.0000010
 2,0.00000495,0.00000407,-0.00000677,-0.00000511,-0.00000305,0.00001591
 ,-0.00000824,-0.00004274,0.00000503,0.00000266,0.00000972,-0.00000641,
 0.00000345,-0.00000148,0.00000486,-0.00000552,-0.00000095,-0.00005232,
 0.00005396,-0.00005066,-0.00000392,-0.00005091,0.00019619,0.00000727,-
 0.00000052,0.00001216,0.00000619,0.00001319,-0.00000248,-0.00002644,-0
 .00002140,0.00001766,0.00003689,0.00004050,-0.00005056,-0.00003750,0.0
 0006718,-0.00001781,0.00054199,0.00033748,-0.00338422,0.00319998,-0.00
 032659,0.00383166,-0.04909184,-0.03264606,-0.04953477,-0.00695173,-0.0
 0519646,0.00245606,0.00064944,-0.00292222,0.00694372,-0.00047111,0.001
 16958,-0.00029311,-0.00099783,-0.00228873,0.00463569,0.00008353,-0.000
 04781,0.00009536,-0.00000135,-0.00000078,0.00000005,-0.00000194,0.0000
 0085,0.00000050,0.00000116,0.00000047,-0.00000066,0.00000025,-0.000000
 89,0.00000111,-0.00000022,-0.00000144,-0.00000123,0.00004786,-0.000011
 49,-0.00000634,-0.00000264,0.00000015,-0.00000180,-0.00000053,0.000004
 54,0.00000592,-0.00005643,0.00000306,0.00019124,-0.00010004,0.00005371
 ,0.00017276,0.05268170,0.04014777,0.03991455,-0.00001167,0.00000453,-0
 .00000166,-0.00001104,-0.00000485,-0.00000046,-0.00000247,-0.00001771,
 0.00000274,-0.00000164,0.00000905,0.00000033,-0.00001301,-0.00001648,-
 0.00000621,0.00000256,0.00002192,-0.00000704,0.00002028,0.00004298,0.0
 0000515,-0.00002638,-0.00002625,0.00008370,0.00002391,0.00002141,-0.00
 000038,-0.00000145,-0.00000030,0.00000106,-0.00002399,-0.00002388,0.00
 000348,0.00003726,-0.00000967,-0.00000687,-0.00006852,-0.00004405,-0.0
 0001088,0.00013615,0.00010930,0.00008286,-0.00020211,-0.00003048,-0.00
 003859,0.00170821,-0.00006466,-0.00067953,0.00155893,-0.00122233,-0.00
 062120,-0.28246656,0.11107726,0.00403025,-0.01742208,0.01408893,0.0020
 2547,-0.00220769,-0.00362604,-0.00235326,0.00053507,-0.00068433,-0.000
 13499,-0.00002958,0.00005638,0.00012705,-0.00000656,-0.00000197,-0.000
 00049,-0.00000559,0.00000182,-0.00000160,0.00000346,0.00000279,-0.0000
 0038,0.00000163,-0.00000552,0.00000097,-0.00000429,-0.00000682,0.00000
 077,0.00000006,0.00004210,-0.00005969,-0.00000767,0.00000347,-0.000001
 74,-0.00000130,0.00000966,-0.00000262,-0.00001422,0.00000320,0.0000037
 0,0.00002108,0.00000970,-0.00000951,0.00075594,0.00015390,0.00061769,0
 .29749343,0.00000154,0.00000966,-0.00000203,-0.00000481,-0.00000514,0.
 00000076,0.00001415,0.00000447,0.00000219,-0.00003088,-0.00000954,-0.0
 0000387,-0.00001465,0.00001364,-0.00001012,0.00000995,-0.00000434,0.00
 000271,0.00002473,0.00002751,0.00000353,0.00002249,-0.00002667,0.00001
 238,0.00005655,0.00001648,0.00004419,0.00001842,0.00006039,-0.00001203
 ,-0.00002809,-0.00005432,0.00000565,0.00007301,0.00003378,-0.00000132,
 -0.00025182,-0.00014661,-0.00011490,0.00012724,-0.00050187,0.00011432,
 0.00127104,0.00031107,0.00002678,-0.00122258,-0.00451370,-0.00337224,0
 .02897595,-0.00829860,-0.00042847,0.11050600,-0.11175766,-0.00878997,-
 0.01572681,0.01104608,0.00057235,-0.00248199,-0.00065893,-0.00243251,-
 0.00036551,-0.00064575,-0.00003680,-0.00019588,0.00018157,0.00027320,0
 .00000205,0.00000138,-0.00000002,0.00000273,-0.00000101,0.00000053,-0.
 00000287,-0.00000031,-0.00000080,-0.00000002,0.00000232,-0.00000068,0.
 00000167,0.00000282,-0.00000064,-0.00000465,0.00001256,-0.00001495,0.0
 0000628,0.00000026,-0.00000358,-0.00000733,-0.00000043,0.00000118,0.00
 012499,-0.00007334,0.00005555,-0.00004613,-0.00001077,-0.00004760,-0.0
 0054955,0.00095146,0.00141496,-0.12019480,0.11328314,-0.00000042,0.000
 01545,-0.00000173,-0.00001566,-0.00000455,-0.00000260,0.00001792,-0.00
 000295,0.00000498,-0.00003397,-0.00002821,-0.00000376,0.,0.00000288,-0
 .00002783,0.00000702,0.00000589,-0.00000366,0.00003260,0.00001616,0.00
 001851,-0.00008839,-0.00009311,0.00007288,0.00006327,-0.00012528,-0.00
 001713,-0.00000967,0.00005407,0.00001912,0.00000450,-0.00003526,-0.000
 00567,0.00004607,0.00001059,0.00004772,-0.00001612,0.00009169,0.000110
 56,-0.00003904,-0.00005491,-0.00046576,0.00052452,-0.00018462,0.000209
 80,-0.00056452,-0.00303246,0.00743476,0.00768992,-0.00285176,0.0039551
 8,0.00432944,-0.00923556,-0.04000392,-0.00714191,0.00382516,0.00368888
 ,-0.00181113,-0.00258866,0.00475914,-0.00022934,-0.00030549,-0.0007093
 2,0.00022805,0.00017596,-0.00082059,-0.00000153,0.00000029,0.00000074,
 -0.00000025,0.00000043,0.00000011,-0.00000295,0.00000305,-0.00000092,0
 .00000184,0.00000102,0.00000049,0.00000247,0.00000796,0.00001322,-0.00
 002166,0.00001296,-0.00001726,-0.00000069,-0.00000147,0.00000719,0.000
 00102,0.00000316,-0.00000214,0.00003231,-0.00001342,-0.00001535,-0.000
 04026,-0.00001015,0.00010323,0.00031636,0.00142840,-0.00435610,-0.0036
 6317,0.01148017,0.02865560,-0.00000646,-0.00000395,-0.00000166,0.00000
 043,-0.00000108,-0.00000066,-0.00000863,-0.00000713,-0.00000259,0.0000
 1364,0.00000802,-0.00000211,-0.00001819,-0.00000976,0.00000609,0.00000
 292,0.00000664,-0.00000233,0.00000623,-0.00002677,-0.00001692,-0.00006
 869,0.00004302,0.00002354,0.00004383,0.00000742,-0.00013845,0.00001458
 ,-0.00007991,0.00003484,0.00002408,0.00005551,-0.00000838,-0.00000254,
 0.00010647,-0.00003572,-0.00029266,0.00014330,0.00005584,-0.00015111,-
 0.00004222,-0.00001756,0.00020497,-0.00016415,0.00010687,-0.00091390,0
 .00005564,-0.00008881,-0.00401671,-0.00180627,-0.00170840,0.00635250,-
 0.02551415,-0.00834870,-0.05958534,0.01997524,0.00352367,0.00136605,0.
 02811883,0.00969559,-0.00468824,0.00147564,-0.00089531,0.00064083,0.00
 105004,0.00044028,-0.00000102,-0.00000018,0.00000056,-0.00000120,-0.00
 000062,0.00000086,0.00000376,-0.00000201,0.00000238,-0.00000417,-0.000
 00443,0.00000319,-0.00002493,-0.00001297,0.00001154,0.00002085,0.00005
 034,0.00000104,-0.00000370,0.00000090,0.00000392,-0.00003447,0.0000250
 5,-0.00000389,0.00001254,0.00000608,-0.00000641,0.00001021,0.00007617,
 0.00000899,0.00011139,-0.00124189,-0.00015768,0.00108390,0.00061413,0.
 00070899,0.05880229,-0.00000148,0.00001803,-0.00000336,-0.00000373,-0.
 00001653,0.00000411,0.00003089,0.00001354,0.00000674,-0.00004843,-0.00
 002476,-0.00000011,-0.00002986,0.00002897,-0.00001996,0.00002235,-0.00
 001439,0.00000647,0.00002834,0.00003275,0.00001170,0.00000399,-0.00004
 334,0.00002971,-0.00003339,-0.00003824,0.00000580,0.00002477,0.0000419
 5,-0.00001381,0.00001666,-0.00006488,0.00000573,0.00000676,-0.00002404
 ,0.00002732,0.00015371,-0.00014485,0.00008223,0.00020426,0.00004366,-0
 .00003467,-0.00009427,0.00014216,0.00030537,0.00010605,0.00054610,0.00
 033317,-0.00308179,0.00096467,-0.00216395,0.00381612,-0.01083068,-0.00
 437933,0.02115151,-0.30454203,-0.08988059,-0.00176076,-0.00839912,-0.0
 0452755,0.00268172,0.00128478,-0.00188945,-0.00058277,-0.00028611,-0.0
 0024847,0.00000562,0.00000247,-0.00000010,0.00000537,-0.00000166,0.000
 00003,-0.00000657,-0.00000010,-0.00000251,0.00000102,0.00000620,-0.000
 00313,0.00001495,0.00001123,-0.00000216,-0.00005381,-0.00003366,0.0000
 0361,0.00000866,-0.00000177,-0.00000356,0.00001916,-0.00002006,0.00001
 728,0.00001441,-0.00002160,-0.00001821,-0.00001032,0.00001065,-0.00000
 780,0.00021157,-0.00054722,-0.00014791,-0.00030895,0.00041571,0.001297
 66,-0.02239171,0.32116081,0.00004176,-0.00005244,0.00001573,0.00003240
 ,0.00005794,-0.00000924,-0.00005869,0.00001309,-0.00001226,0.00009242,
 0.00005958,0.00000427,0.00013116,-0.00003866,0.00006383,-0.00007347,-0
 .00001533,-0.00000148,-0.00016868,-0.00006212,-0.00003336,0.00025612,0
 .00010779,-0.00019341,-0.00014875,-0.00013226,0.00012544,-0.00002672,-
 0.00013876,-0.00004490,0.00008207,0.00013879,0.00000927,-0.00014029,0.
 00005578,-0.00005048,0.00034265,0.00031860,-0.00033005,-0.00053193,-0.
 00005952,0.00006326,0.00031986,-0.00033537,-0.00079654,-0.00067056,0.0
 0095068,-0.00056741,-0.00209428,-0.00228051,0.00464043,0.00288679,-0.0
 0675751,0.00139966,0.00176726,-0.09047735,-0.06820238,0.00087083,-0.00
 251038,0.00311517,-0.00102472,-0.00053963,0.00760086,0.00057814,-0.000
 43337,0.00029558,0.00000156,-0.00000058,0.00000010,0.00000105,0.000001
 00,0.00000086,-0.00000282,0.00000100,-0.00000007,0.00000190,0.00000460
 ,0.00000079,0.00001585,0.00000244,-0.00002044,0.00010032,-0.00005364,0
 .00005667,0.00000086,0.00000311,0.00000811,-0.00000447,0.00000022,-0.0
 0002680,-0.00000953,-0.00000444,0.00005340,-0.00001313,0.00001322,0.00
 003408,0.00008551,-0.00054148,0.00016501,0.00050548,0.00126887,-0.0027
 8121,-0.00378122,0.09948710,0.05951870,-0.00002723,0.00002808,0.000024
 49,-0.00002332,-0.00005451,0.00000451,0.00008877,0.00002797,0.00005160
 ,-0.00013436,0.00000074,0.00003527,0.00000907,-0.00017604,-0.00033552,
 0.00000681,-0.00002116,-0.00000969,-0.00077688,-0.00009023,-0.00019209
 ,-0.00240840,-0.00037258,0.00430334,0.00017875,0.00127523,-0.00006175,
 0.00020536,-0.00006220,-0.00014408,-0.00001408,-0.00001957,-0.00000582
 ,0.00002320,-0.00007023,0.00002744,0.00001856,-0.00023333,-0.00015335,
 0.00016836,0.00003492,0.00003254,0.00018666,0.00026056,-0.00008161,0.0
 0114259,0.00142532,-0.00058388,0.00021696,0.00088161,0.00044245,-0.003
 20489,0.00382967,-0.00011347,-0.01873884,-0.01648374,-0.00891711,-0.23
 601422,-0.11777679,-0.07695860,0.00628618,0.00209099,0.00167904,-0.000
 75500,0.00000035,0.00076938,0.00000501,0.00000465,0.00000495,0.0000079
 2,-0.00000473,-0.00000945,0.00000202,-0.00000622,0.00000137,0.00000434
 ,0.00000493,-0.00001169,0.00001669,0.00005721,0.00012491,-0.00317975,0
 .00095839,0.00260198,0.00000567,-0.00001362,0.00000679,0.00000894,-0.0
 0001384,-0.00000004,-0.00000562,-0.00001157,0.00001349,0.00000595,0.00
 008184,0.00004335,-0.00003654,-0.00009314,0.00006537,-0.00085405,-0.00
 072454,-0.00032563,0.00110694,-0.00012006,0.00063527,0.25647843,-0.000
 03169,0.00006907,-0.00001314,-0.00007272,-0.00003893,-0.00000088,0.000
 06981,-0.00004003,0.00003374,-0.00015745,-0.00003175,-0.00005460,-0.00
 014553,-0.00004440,-0.00014131,0.00005481,0.00006829,-0.00001429,0.000
 04522,0.00025447,0.00002557,0.00022263,0.00013096,0.00097447,0.0001445
 9,-0.00013014,-0.00027599,0.00045105,-0.00016306,0.00007211,0.00007422
 ,0.00010784,0.00001028,-0.00015256,0.00010563,-0.00005996,-0.00007310,
 -0.00034598,0.00003654,0.00005299,0.00002256,0.00003894,-0.00141691,-0
 .00008720,-0.00009801,0.00260635,-0.00412369,-0.00330923,0.00050096,-0
 .00031480,0.00016629,0.00274091,0.00009681,-0.00255322,0.01344069,0.01
 101182,0.00377477,-0.11711072,-0.13390444,-0.05474154,-0.02419494,-0.0
 1146326,-0.00791682,-0.00138806,0.00102614,0.00136468,-0.00001307,-0.0
 0000034,-0.00000127,-0.00000634,0.00000031,-0.00000339,-0.00000305,0.0
 0001031,-0.00000418,-0.00000001,-0.00001105,0.00000314,-0.00005661,-0.
 00003363,0.00005282,-0.00103806,0.00122106,0.00013066,0.00000008,0.000
 02523,0.00000785,0.00000344,0.00000451,-0.00000891,0.00005384,-0.00001
 271,-0.00000822,0.00000878,-0.00041371,-0.00004342,-0.00011665,-0.0000
 4752,0.00036925,0.00063066,0.00033470,0.00013493,-0.00050921,0.0003313
 7,0.00194954,0.12538564,0.13638553,-0.00000668,0.00009973,-0.00001356,
 -0.00012239,-0.00000843,-0.00002206,0.00008485,-0.00004385,0.00001534,
 -0.00021629,-0.00006882,0.00001595,-0.00004736,-0.00001809,-0.00014221
 ,0.00002385,0.00007944,-0.00004145,0.00032365,0.00038014,0.00001378,0.
 00142618,-0.00058513,-0.00043607,0.00000152,-0.00108660,0.00003263,0.0
 0001061,0.00031223,0.00000498,-0.00001809,-0.00019457,-0.00000286,0.00
 022839,0.00011447,0.00013561,-0.00005591,0.00076558,0.00007899,-0.0002
 1848,-0.00006153,-0.00021727,-0.00060723,-0.00019030,0.00016517,0.0002
 5006,-0.00264180,0.00434816,0.00094077,-0.00038623,-0.00062418,0.00005
 070,-0.00149300,0.00705087,0.00138659,-0.00021691,0.00487002,-0.076285
 51,-0.05567955,-0.06879138,-0.00865523,-0.00129105,0.00172174,0.001162
 84,0.00045330,-0.00276185,-0.00002066,0.00000025,0.00000170,-0.0000077
 0,0.00000464,-0.00000108,-0.00001954,0.00002655,-0.00000810,0.00001344
 ,-0.00000288,0.00000566,-0.00000230,0.00000743,0.00007825,0.00256599,-
 0.00009950,-0.00231637,-0.00000001,0.00001459,-0.00001737,0.00000612,0
 .00000523,0.00000833,0.00001499,-0.00000770,0.00001221,0.00001411,-0.0
 0020049,0.00004819,0.00004430,0.00019421,-0.00090519,0.00010957,-0.000
 00678,0.00013286,0.00058860,0.00172263,-0.00410118,0.07703622,0.060102
 80,0.06166175\\-0.00000104,-0.00000339,0.00000128,-0.00000141,0.000001
 75,-0.00000022,0.00000363,-0.00000207,-0.00000424,0.00001574,0.0000201
 8,0.00000605,0.00001850,0.00000868,0.00000265,-0.00000191,-0.00001183,
 -0.00000113,-0.00002409,-0.00001010,-0.00000333,0.00001684,0.00001318,
 0.00000046,-0.00001953,-0.00001779,0.00000966,-0.00001854,-0.00001408,
 -0.00001238,0.00001449,0.00000787,0.00000769,-0.00001618,-0.00000008,-
 0.00000443,0.00000730,-0.00001850,0.00000467,0.00000075,0.00000643,0.0
 0000374,-0.00000265,0.00000130,-0.00000489,-0.00000308,-0.00000572,0.0
 0000533,0.00000287,0.00001694,0.00000281,-0.00001170,-0.00000766,-0.00
 000983,0.00001620,-0.00000265,0.00000766,-0.00000995,0.00000383,-0.000
 00088,0.00000644,-0.00001000,-0.00000737,0.00000813,0.00001443,-0.0000
 0400,0.00000074,0.00000258,-0.00000141,0.00000084,-0.00000063,0.000002
 56,-0.00000500,0.00000052,0.00000296,0.00000060,0.00000137,-0.00000047
 ,0.00000426,0.00000327,0.00000085,-0.00000184,0.00000125,0.00000099,0.
 00000185,0.00000309,-0.00000391,-0.00000418,-0.00000025,-0.00000195,0.
 00000209,-0.00000142,-0.00000110,0.00000021,0.00000063,0.00000063,-0.0
 0000083,-0.00000281,0.00000136,-0.00000139,-0.00000074,0.00000235,-0.0
 0000243,0.00000270,-0.00000340,0.00000427,-0.00000027,0.00000122\\\@
 The archive entry for this job was punched.


 YOU CANNOT THROW TO THE GROUND THE LETTERS OF
 THE GREEK ALPHABET AND PICK UP THE ILIAD.
        - RUFUS CHOATE, 1799-1859
 Job cpu time:       0 days  1 hours 22 minutes 50.1 seconds.
 Elapsed time:       0 days  0 hours 10 minutes 21.3 seconds.
 File lengths (MBytes):  RWF=    487 Int=      0 D2E=      0 Chk=     11 Scr=      1
 Normal termination of Gaussian 16 at Wed Oct  9 00:20:11 2024.
